# vtk DataFile Version 2.0
TITLE = "Quad data"
ASCII
DATASET STRUCTURED_GRID
DIMENSIONS 33 33 1
POINTS 1089 FLOAT
0.000000 0.000000 0.000000
0.000000 0.031250 0.000000
0.000000 0.062500 0.000000
0.000000 0.093750 0.000000
0.000000 0.125000 0.000000
0.000000 0.156250 0.000000
0.000000 0.187500 0.000000
0.000000 0.218750 0.000000
0.000000 0.250000 0.000000
0.000000 0.281250 0.000000
0.000000 0.312500 0.000000
0.000000 0.343750 0.000000
0.000000 0.375000 0.000000
0.000000 0.406250 0.000000
0.000000 0.437500 0.000000
0.000000 0.468750 0.000000
0.000000 0.500000 0.000000
0.000000 0.531250 0.000000
0.000000 0.562500 0.000000
0.000000 0.593750 0.000000
0.000000 0.625000 0.000000
0.000000 0.656250 0.000000
0.000000 0.687500 0.000000
0.000000 0.718750 0.000000
0.000000 0.750000 0.000000
0.000000 0.781250 0.000000
0.000000 0.812500 0.000000
0.000000 0.843750 0.000000
0.000000 0.875000 0.000000
0.000000 0.906250 0.000000
0.000000 0.937500 0.000000
0.000000 0.968750 0.000000
0.000000 1.000000 0.000000
0.031250 0.000000 0.000000
0.031250 0.031250 0.000000
0.031250 0.062500 0.000000
0.031250 0.093750 0.000000
0.031250 0.125000 0.000000
0.031250 0.156250 0.000000
0.031250 0.187500 0.000000
0.031250 0.218750 0.000000
0.031250 0.250000 0.000000
0.031250 0.281250 0.000000
0.031250 0.312500 0.000000
0.031250 0.343750 0.000000
0.031250 0.375000 0.000000
0.031250 0.406250 0.000000
0.031250 0.437500 0.000000
0.031250 0.468750 0.000000
0.031250 0.500000 0.000000
0.031250 0.531250 0.000000
0.031250 0.562500 0.000000
0.031250 0.593750 0.000000
0.031250 0.625000 0.000000
0.031250 0.656250 0.000000
0.031250 0.687500 0.000000
0.031250 0.718750 0.000000
0.031250 0.750000 0.000000
0.031250 0.781250 0.000000
0.031250 0.812500 0.000000
0.031250 0.843750 0.000000
0.031250 0.875000 0.000000
0.031250 0.906250 0.000000
0.031250 0.937500 0.000000
0.031250 0.968750 0.000000
0.031250 1.000000 0.000000
0.062500 0.000000 0.000000
0.062500 0.031250 0.000000
0.062500 0.062500 0.000000
0.062500 0.093750 0.000000
0.062500 0.125000 0.000000
0.062500 0.156250 0.000000
0.062500 0.187500 0.000000
0.062500 0.218750 0.000000
0.062500 0.250000 0.000000
0.062500 0.281250 0.000000
0.062500 0.312500 0.000000
0.062500 0.343750 0.000000
0.062500 0.375000 0.000000
0.062500 0.406250 0.000000
0.062500 0.437500 0.000000
0.062500 0.468750 0.000000
0.062500 0.500000 0.000000
0.062500 0.531250 0.000000
0.062500 0.562500 0.000000
0.062500 0.593750 0.000000
0.062500 0.625000 0.000000
0.062500 0.656250 0.000000
0.062500 0.687500 0.000000
0.062500 0.718750 0.000000
0.062500 0.750000 0.000000
0.062500 0.781250 0.000000
0.062500 0.812500 0.000000
0.062500 0.843750 0.000000
0.062500 0.875000 0.000000
0.062500 0.906250 0.000000
0.062500 0.937500 0.000000
0.062500 0.968750 0.000000
0.062500 1.000000 0.000000
0.093750 0.000000 0.000000
0.093750 0.031250 0.000000
0.093750 0.062500 0.000000
0.093750 0.093750 0.000000
0.093750 0.125000 0.000000
0.093750 0.156250 0.000000
0.093750 0.187500 0.000000
0.093750 0.218750 0.000000
0.093750 0.250000 0.000000
0.093750 0.281250 0.000000
0.093750 0.312500 0.000000
0.093750 0.343750 0.000000
0.093750 0.375000 0.000000
0.093750 0.406250 0.000000
0.093750 0.437500 0.000000
0.093750 0.468750 0.000000
0.093750 0.500000 0.000000
0.093750 0.531250 0.000000
0.093750 0.562500 0.000000
0.093750 0.593750 0.000000
0.093750 0.625000 0.000000
0.093750 0.656250 0.000000
0.093750 0.687500 0.000000
0.093750 0.718750 0.000000
0.093750 0.750000 0.000000
0.093750 0.781250 0.000000
0.093750 0.812500 0.000000
0.093750 0.843750 0.000000
0.093750 0.875000 0.000000
0.093750 0.906250 0.000000
0.093750 0.937500 0.000000
0.093750 0.968750 0.000000
0.093750 1.000000 0.000000
0.125000 0.000000 0.000000
0.125000 0.031250 0.000000
0.125000 0.062500 0.000000
0.125000 0.093750 0.000000
0.125000 0.125000 0.000000
0.125000 0.156250 0.000000
0.125000 0.187500 0.000000
0.125000 0.218750 0.000000
0.125000 0.250000 0.000000
0.125000 0.281250 0.000000
0.125000 0.312500 0.000000
0.125000 0.343750 0.000000
0.125000 0.375000 0.000000
0.125000 0.406250 0.000000
0.125000 0.437500 0.000000
0.125000 0.468750 0.000000
0.125000 0.500000 0.000000
0.125000 0.531250 0.000000
0.125000 0.562500 0.000000
0.125000 0.593750 0.000000
0.125000 0.625000 0.000000
0.125000 0.656250 0.000000
0.125000 0.687500 0.000000
0.125000 0.718750 0.000000
0.125000 0.750000 0.000000
0.125000 0.781250 0.000000
0.125000 0.812500 0.000000
0.125000 0.843750 0.000000
0.125000 0.875000 0.000000
0.125000 0.906250 0.000000
0.125000 0.937500 0.000000
0.125000 0.968750 0.000000
0.125000 1.000000 0.000000
0.156250 0.000000 0.000000
0.156250 0.031250 0.000000
0.156250 0.062500 0.000000
0.156250 0.093750 0.000000
0.156250 0.125000 0.000000
0.156250 0.156250 0.000000
0.156250 0.187500 0.000000
0.156250 0.218750 0.000000
0.156250 0.250000 0.000000
0.156250 0.281250 0.000000
0.156250 0.312500 0.000000
0.156250 0.343750 0.000000
0.156250 0.375000 0.000000
0.156250 0.406250 0.000000
0.156250 0.437500 0.000000
0.156250 0.468750 0.000000
0.156250 0.500000 0.000000
0.156250 0.531250 0.000000
0.156250 0.562500 0.000000
0.156250 0.593750 0.000000
0.156250 0.625000 0.000000
0.156250 0.656250 0.000000
0.156250 0.687500 0.000000
0.156250 0.718750 0.000000
0.156250 0.750000 0.000000
0.156250 0.781250 0.000000
0.156250 0.812500 0.000000
0.156250 0.843750 0.000000
0.156250 0.875000 0.000000
0.156250 0.906250 0.000000
0.156250 0.937500 0.000000
0.156250 0.968750 0.000000
0.156250 1.000000 0.000000
0.187500 0.000000 0.000000
0.187500 0.031250 0.000000
0.187500 0.062500 0.000000
0.187500 0.093750 0.000000
0.187500 0.125000 0.000000
0.187500 0.156250 0.000000
0.187500 0.187500 0.000000
0.187500 0.218750 0.000000
0.187500 0.250000 0.000000
0.187500 0.281250 0.000000
0.187500 0.312500 0.000000
0.187500 0.343750 0.000000
0.187500 0.375000 0.000000
0.187500 0.406250 0.000000
0.187500 0.437500 0.000000
0.187500 0.468750 0.000000
0.187500 0.500000 0.000000
0.187500 0.531250 0.000000
0.187500 0.562500 0.000000
0.187500 0.593750 0.000000
0.187500 0.625000 0.000000
0.187500 0.656250 0.000000
0.187500 0.687500 0.000000
0.187500 0.718750 0.000000
0.187500 0.750000 0.000000
0.187500 0.781250 0.000000
0.187500 0.812500 0.000000
0.187500 0.843750 0.000000
0.187500 0.875000 0.000000
0.187500 0.906250 0.000000
0.187500 0.937500 0.000000
0.187500 0.968750 0.000000
0.187500 1.000000 0.000000
0.218750 0.000000 0.000000
0.218750 0.031250 0.000000
0.218750 0.062500 0.000000
0.218750 0.093750 0.000000
0.218750 0.125000 0.000000
0.218750 0.156250 0.000000
0.218750 0.187500 0.000000
0.218750 0.218750 0.000000
0.218750 0.250000 0.000000
0.218750 0.281250 0.000000
0.218750 0.312500 0.000000
0.218750 0.343750 0.000000
0.218750 0.375000 0.000000
0.218750 0.406250 0.000000
0.218750 0.437500 0.000000
0.218750 0.468750 0.000000
0.218750 0.500000 0.000000
0.218750 0.531250 0.000000
0.218750 0.562500 0.000000
0.218750 0.593750 0.000000
0.218750 0.625000 0.000000
0.218750 0.656250 0.000000
0.218750 0.687500 0.000000
0.218750 0.718750 0.000000
0.218750 0.750000 0.000000
0.218750 0.781250 0.000000
0.218750 0.812500 0.000000
0.218750 0.843750 0.000000
0.218750 0.875000 0.000000
0.218750 0.906250 0.000000
0.218750 0.937500 0.000000
0.218750 0.968750 0.000000
0.218750 1.000000 0.000000
0.250000 0.000000 0.000000
0.250000 0.031250 0.000000
0.250000 0.062500 0.000000
0.250000 0.093750 0.000000
0.250000 0.125000 0.000000
0.250000 0.156250 0.000000
0.250000 0.187500 0.000000
0.250000 0.218750 0.000000
0.250000 0.250000 0.000000
0.250000 0.281250 0.000000
0.250000 0.312500 0.000000
0.250000 0.343750 0.000000
0.250000 0.375000 0.000000
0.250000 0.406250 0.000000
0.250000 0.437500 0.000000
0.250000 0.468750 0.000000
0.250000 0.500000 0.000000
0.250000 0.531250 0.000000
0.250000 0.562500 0.000000
0.250000 0.593750 0.000000
0.250000 0.625000 0.000000
0.250000 0.656250 0.000000
0.250000 0.687500 0.000000
0.250000 0.718750 0.000000
0.250000 0.750000 0.000000
0.250000 0.781250 0.000000
0.250000 0.812500 0.000000
0.250000 0.843750 0.000000
0.250000 0.875000 0.000000
0.250000 0.906250 0.000000
0.250000 0.937500 0.000000
0.250000 0.968750 0.000000
0.250000 1.000000 0.000000
0.281250 0.000000 0.000000
0.281250 0.031250 0.000000
0.281250 0.062500 0.000000
0.281250 0.093750 0.000000
0.281250 0.125000 0.000000
0.281250 0.156250 0.000000
0.281250 0.187500 0.000000
0.281250 0.218750 0.000000
0.281250 0.250000 0.000000
0.281250 0.281250 0.000000
0.281250 0.312500 0.000000
0.281250 0.343750 0.000000
0.281250 0.375000 0.000000
0.281250 0.406250 0.000000
0.281250 0.437500 0.000000
0.281250 0.468750 0.000000
0.281250 0.500000 0.000000
0.281250 0.531250 0.000000
0.281250 0.562500 0.000000
0.281250 0.593750 0.000000
0.281250 0.625000 0.000000
0.281250 0.656250 0.000000
0.281250 0.687500 0.000000
0.281250 0.718750 0.000000
0.281250 0.750000 0.000000
0.281250 0.781250 0.000000
0.281250 0.812500 0.000000
0.281250 0.843750 0.000000
0.281250 0.875000 0.000000
0.281250 0.906250 0.000000
0.281250 0.937500 0.000000
0.281250 0.968750 0.000000
0.281250 1.000000 0.000000
0.312500 0.000000 0.000000
0.312500 0.031250 0.000000
0.312500 0.062500 0.000000
0.312500 0.093750 0.000000
0.312500 0.125000 0.000000
0.312500 0.156250 0.000000
0.312500 0.187500 0.000000
0.312500 0.218750 0.000000
0.312500 0.250000 0.000000
0.312500 0.281250 0.000000
0.312500 0.312500 0.000000
0.312500 0.343750 0.000000
0.312500 0.375000 0.000000
0.312500 0.406250 0.000000
0.312500 0.437500 0.000000
0.312500 0.468750 0.000000
0.312500 0.500000 0.000000
0.312500 0.531250 0.000000
0.312500 0.562500 0.000000
0.312500 0.593750 0.000000
0.312500 0.625000 0.000000
0.312500 0.656250 0.000000
0.312500 0.687500 0.000000
0.312500 0.718750 0.000000
0.312500 0.750000 0.000000
0.312500 0.781250 0.000000
0.312500 0.812500 0.000000
0.312500 0.843750 0.000000
0.312500 0.875000 0.000000
0.312500 0.906250 0.000000
0.312500 0.937500 0.000000
0.312500 0.968750 0.000000
0.312500 1.000000 0.000000
0.343750 0.000000 0.000000
0.343750 0.031250 0.000000
0.343750 0.062500 0.000000
[...]
POINT_DATA 1089
SCALARS phi FLOAT 1
LOOKUP_TABLE default
0.000000000000
0.000000953674
0.000015258789
0.000077247620
0.000244140625
0.000596046448
0.001235961914
0.002289772034
0.003906250000
0.006257057190
0.009536743164
0.013962745667
0.019775390625
0.027237892151
0.036636352539
0.048279762268
0.062500000000
0.079651832581
0.100112915039
0.124283790588
0.152587890625
0.185471534729
0.223403930664
0.266877174377
0.316406250000
0.372529029846
0.435806274414
0.506821632385
0.586181640625
0.674515724182
0.772476196289
0.880738258362
1.000000000000
0.000000953674
-0.820412372503
-0.610956245899
-0.373948232499
-0.187524723880
-0.076016849807
-0.023013433581
-0.001680013075
0.007263683480
0.013278412043
0.019996077316
0.028735043340
0.040158600796
0.054816224668
0.073275182930
0.096145138435
0.124081792969
0.157787469386
0.198011453978
0.245550443297
0.301249142228
0.366001049680
0.440749491391
0.526488996724
0.624267178576
0.735187387612
0.860412629295
1.001171685764
1.158769415323
1.334605775009
1.530215217349
1.747359857804
0.994141578674
0.000015258789
-0.610956245899
-0.454180074865
-0.277271303462
-0.138296435725
-0.055227966380
-0.015705171153
0.000369099780
0.007443456084
0.012645477231
0.018766396892
0.026885410325
0.037606619854
0.051462178655
0.069010039171
0.090852147930
0.117637229645
0.150061462955
0.188869129824
0.234853494991
0.288857969558
0.351777624567
0.424561161763
0.508213510796
0.603799321464
0.712447788937
0.835359553368
0.973816982872
1.129200247090
1.303013748343
1.496931595472
1.712877376115
0.976577758789
0.000077247620
-0.373948232499
-0.277271303462
-0.168586025743
-0.083392047987
-0.032571462920
-0.008407643362
0.001549303068
0.006280249101
0.010281324722
0.015401832433
0.022457478250
0.031990347977
0.044516500168
0.060586008589
0.080794257408
0.105783913043
0.136245751099
0.172919625529
0.216595754985
0.268116390458
0.328377952683
0.398333775461
0.478997659772
0.571448547252
0.676836784388
0.796392709268
0.931438708406
1.083406528798
1.253862484006
1.444543838010
1.657408047584
0.947342872620
0.000244140625
-0.187524723880
-0.138296435725
-0.083392047987
-0.040623585861
-0.015346214831
-0.003521934525
0.001277002646
0.003732979027
0.006277102344
0.010021921176
0.015578547893
0.023441638241
0.034115030518
0.048142469324
0.066113706489
0.088665982997
0.116485070295
0.150306554028
0.190917482298
0.239158453533
0.295926245817
0.362177133323
0.438931095722
0.527277210665
0.628380637401
0.743491759826
0.873958255573
1.021241041422
1.186935019670
1.372794762006
1.580762435667
0.906494140625
0.000596046448
-0.076016849807
-0.055227966380
-0.032571462920
-0.015346214831
-0.005641734314
-0.001630284874
-0.000480778626
-0.000073915628
0.000791911947
0.002791570484
0.006414937439
0.012128247020
0.020427193015
0.031850380460
0.046982508434
0.066455701438
0.090950791633
0.121198884893
0.157983307723
0.202142018288
0.254570587276
0.316225888069
0.388130679612
0.471379320400
0.567144916838
0.676688273854
0.801369049431
0.942659439795
1.102160369796
1.281619221871
1.482946190620
0.854111671448
0.001235961914
-0.023013433581
-0.015705171153
-0.008407643362
-0.003521934525
-0.001630284874
-0.001951902685
-0.003344067923
-0.004888113181
-0.005957567017
-0.006082143152
-0.004829012540
-0.001746239976
0.003656435530
0.011913095198
0.023603590994
0.039354928012
0.059842766041
0.085793211665
0.117984988113
0.157252068795
0.204486876105
0.260644169213
0.326745770941
0.403886311215
0.493240186210
0.596069932365
0.713736161262
0.847709036699
0.999580907014
1.171079026405
1.364076289371
0.790298461914
0.002289772034
-0.001680013075
0.000369099780
0.001549303068
0.001277002646
-0.000480778626
-0.003344067923
-0.006806111748
-0.010399147939
-0.013712682017
-0.016353742165
-0.017911997371
-0.017942549723
-0.015959407200
-0.011432911417
-0.003788165553
0.007596454036
0.023390962490
0.044315714438
0.071143716446
0.104703386804
0.145881854834
0.195628903902
0.254961674047
0.324970247051
0.406824230792
0.501780426956
0.611191584288
0.736516076719
0.879328068322
1.041327327325
1.224347415259
0.715180397034
0.003906250000
0.007263683480
0.007443456084
0.006280249101
0.003732979027
-0.000073915628
-0.004888113181
-0.010399147939
-0.016278058212
-0.022181445344
-0.027741396209
-0.032556293016
-0.036185692279
-0.038147711523
-0.037917345522
-0.034924976897
-0.028554810966
-0.018143117791
-0.002976201537
0.017711976642
0.044742597984
0.078995288267
0.121412007865
0.173001616574
0.234845194395
0.308102179865
0.394017344260
0.493928540873
0.609275040976
0.741606088813
0.892589100974
1.064016782939
0.628906250000
0.006257057190
0.013278412043
0.012645477231
0.010281324722
0.006277102344
0.000791911947
-0.005957567017
-0.013712682017
-0.022181445344
-0.031039391773
-0.039927121368
-0.048447695466
-0.056164671869
-0.062600557445
-0.067235387605
-0.069505268463
-0.068800790455
-0.064465244984
-0.055792579847
-0.042025028455
-0.022350345778
0.004101418013
0.038261675480
0.081127656703
0.133767414648
0.197325511123
0.273029371907
0.362196235450
0.466240530517
0.586681412273
0.725150089944
0.883396546944
0.531647682190
0.009536743164
0.019996077316
0.018766396892
0.015401832433
0.010021921176
0.002791570484
-0.006082143152
-0.016353742165
-0.027741396209
-0.039927121368
-0.052555988571
-0.065235010124
-0.077531951343
-0.088974098099
-0.099046954620
-0.107192835855
-0.112809312683
-0.115247462053
-0.113809869174
-0.107748325393
-0.096261163024
-0.078490167631
-0.053517010092
-0.020359147006
0.022034849104
0.074790545877
0.139113475221
0.216295459524
0.307721315793
0.414875754196
0.539350247106
0.682849654616
0.423599243164
0.013962745667
0.028735043340
0.026885410325
0.022457478250
0.015578547893
0.006414937439
-0.004829012540
-0.017911997371
-0.032556293016
-0.048447695466
-0.065235010124
-0.082529260205
-0.099902718943
-0.116887814840
-0.132975923669
-0.147616037291
-0.160213283062
-0.170127256490
-0.176670122560
-0.179104436384
-0.176640631116
-0.168434120414
-0.153581964898
-0.131119058161
-0.100013799502
-0.059163239088
-0.007387707593
0.056575024016
0.134075971640
0.226561436230
0.335579641406
0.462787397117
0.304978370667
0.019775390625
0.040158600796
0.037606619854
0.031990347977
0.023441638241
0.012128247020
-0.001746239976
-0.017942549723
-0.036185692279
-0.056164671869
-0.077531951343
-0.099902718943
-0.122854004317
-0.145923673809
-0.168609315308
-0.190367005201
-0.210609935974
-0.228706872617
-0.243980398578
-0.255704906902
-0.263104288921
-0.265349271705
-0.261554356711
-0.250774316711
-0.232000216813
-0.204154939256
-0.166088210642
-0.116571153400
-0.054290407589
0.022158111077
0.114275743554
0.223667849995
0.176025390625
0.027237892151
0.054816224668
0.051462178655
0.044516500168
0.034115030518
0.020427193015
0.003656435530
-0.015959407200
-0.038147711523
-0.062600557445
-0.088974098099
-0.116887814840
-0.145923673809
-0.175625194831
-0.205496433183
-0.235000863431
-0.263560144246
-0.290552734682
-0.315312325624
-0.337126044979
-0.355232391342
-0.368818848632
-0.377019133822
-0.378910031955
-0.373507777945
-0.359763953515
-0.336560880435
-0.302706506934
-0.256928801087
-0.197869679549
-0.124078507752
-0.034005204316
0.037003517151
0.036636352539
0.073275182930
0.069010039171
0.060586008589
0.048142469324
0.031850380460
0.011913095198
-0.011432911417
-0.037917345522
-0.067235387605
-0.099046954620
-0.132975923669
-0.168609315308
-0.205496433183
-0.243147951359
-0.281034933809
-0.318587763494
-0.355194951962
-0.390201794579
-0.422908831396
-0.452570069143
-0.478390916165
-0.499525779492
-0.515075272207
-0.524082980414
-0.525531743111
-0.518339405425
-0.501354016141
-0.473348453353
-0.433014475919
-0.378956210861
-0.309683095369
-0.111801147461
0.048279762268
0.096145138435
0.090852147930
0.080794257408
0.066113706489
0.046982508434
0.023603590994
-0.003788165553
-0.034924976897
-0.069505268463
-0.107192835855
-0.147616037291
-0.190367005201
-0.235000863431
-0.281034933809
-0.327947911859
-0.375178987026
-0.422126878043
-0.468148749227
-0.512558968384
-0.554627661728
-0.593579015751
-0.628589270654
-0.658784345145
-0.683237028859
-0.700963677262
-0.710920345581
-0.711998304130
-0.703018887958
-0.682727649254
-0.649787800585
-0.602772959266
-0.270079612732
0.062500000000
0.124081792969
0.117637229645
0.105783913043
0.088665982997
0.066455701438
0.039354928012
0.007596454036
-0.028554810966
-0.068800790455
-0.112809312683
-0.160213283062
-0.210609935974
-0.263560144246
-0.318587763494
-0.375178987026
-0.432781684749
-0.490804696562
-0.548617046769
-0.605547041097
-0.660881201624
-0.713862987539
-0.763691241056
-0.809518288576
-0.850447618083
-0.885531045908
-0.913765281286
-0.934087797637
-0.945371927613
-0.946421116842
-0.935962299837
-0.912638399970
-0.437500000000
0.079651832581
0.157787469386
0.150061462955
0.136245751099
0.116485070295
0.090950791633
0.059842766041
0.023390962490
-0.018143117791
-0.064465244984
-0.115247462053
-0.170127256490
-0.228706872617
-0.290552734682
-0.355194951962
-0.422126878043
-0.490804696562
-0.560647004573
-0.631034361898
-0.701308769996
-0.770773036828
-0.838689974504
-0.904281364383
-0.966726609779
-1.025160980445
-1.078673337071
-1.126303210642
-1.167037104351
-1.199803889389
-1.223469185138
-1.236828652783
-1.238600189630
-0.613707542419
0.100112915039
0.198011453978
0.188869129824
0.172919625529
0.150306554028
0.121198884893
0.085793211665
0.044315714438
-0.002976201537
-0.055792579847
-0.113809869174
-0.176670122560
-0.243980398578
-0.315312325624
-0.390201794579
-0.468148749227
-0.548617046769
-0.631034361898
-0.714792106520
-0.799245332922
-0.883712580334
-0.967475613127
-1.049778982746
-1.129829324961
-1.206794279592
-1.279800893235
-1.347933339790
-1.410229774238
-1.465678129386
-1.513210682293
-1.551697264956
-1.579937076813
-0.798324584961
0.124283790588
0.245550443297
0.234853494991
0.216595754985
0.190917482298
0.157983307723
0.117984988113
0.071143716446
0.017711976642
-0.042025028455
-0.107748325393
-0.179104436384
-0.255704906902
-0.337126044979
-0.422908831396
-0.512558968384
-0.605547041097
-0.701308769996
-0.799245332922
-0.898723732240
-0.999077174469
-1.099605416240
-1.199575010467
-1.298219359402
-1.394738446780
-1.488298080579
-1.578028434591
-1.663021637880
-1.742328137278
-1.814951564510
-1.879841892836
-1.935886780519
-0.990950584412
0.152587890625
0.301249142228
0.288857969558
0.268116390458
0.239158453533
0.202142018288
0.157252068795
0.104703386804
0.044742597984
-0.022350345778
-0.096261163024
-0.176640631116
-0.263104288921
-0.355232391342
-0.452570069143
-0.554627661728
-0.660881201624
-0.770773036828
-0.883712580334
-0.999077174469
-1.116213050329
-1.234436348161
-1.353034141364
-1.471265373092
-1.588361568519
-1.703527127685
-1.815938935917
-1.924744958753
-2.029061431135
-2.127968229914
-2.220502065329
-2.305647270412
-1.191162109375
0.185471534729
0.366001049680
0.351777624567
0.328377952683
0.295926245817
0.254570587276
0.204486876105
0.145881854834
0.078995288267
0.004101418013
-0.078490167631
-0.168434120414
-0.265349271705
-0.368818848632
-0.478390916165
-0.593579015751
-0.713862987539
-0.838689974504
-0.967475613127
-1.099605416240
-1.234436348161
-1.371298578629
-1.509497377541
-1.648315073608
-1.787012942999
-1.924832815588
-2.060998086160
-2.194713701969
-2.325164583621
-2.451511857787
-2.572886290747
-2.688378474711
-1.398512840271
0.223403930664
0.440749491391
0.424561161763
0.398333775461
0.362177133323
0.316225888069
0.260644169213
0.195628903902
0.121412007865
0.038261675480
-0.053517010092
-0.153581964898
-0.261554356711
-0.377019133822
-0.499525779492
-0.628589270654
-0.763691241056
-0.904281364383
-1.049778982746
-1.199575010467
-1.353034141364
-1.509497377541
-1.668284875235
-1.828699063099
-1.990027923058
-2.151548225411
-2.312528371105
-2.472230314467
-2.629909833711
-2.784814226944
-2.936176422343
-3.083204627883
-1.612533569336
0.266877174377
0.526488996724
0.508213510796
0.478997659772
0.438931095722
0.388130679612
0.326745770941
0.254961674047
0.173001616574
0.081127656703
-0.020359147006
-0.131119058161
-0.250774316711
-0.378910031955
-0.515075272207
-0.658784345145
-0.809518288576
-0.966726609779
-1.129829324961
-1.298219359402
-1.471265373092
-1.648315073608
-1.828699063099
-2.011735231935
-2.196733646281
-2.383001765139
-2.569849645570
-2.756594536624
-2.942563921699
-3.127095684050
-3.309533755913
-3.489217592575
-1.832732200623
0.316406250000
0.624267178576
0.603799321464
0.571448547252
0.527277210665
0.471379320400
0.403886311215
0.324970247051
0.234845194395
0.133767414648
0.022034849104
-0.100013799502
-0.232000216813
-0.373507777945
-0.524082980414
-0.683237028859
-0.850447618083
-1.025160980445
-1.206794279592
-1.394738446780
-1.588361568519
-1.787012942999
-1.990027923058
-2.196733646281
-2.406455703082
-2.618525686861
-2.832289371438
-3.047114924956
-3.262400054731
-3.477576281400
-3.692107776313
-3.905481708482
-2.058593750000
0.372529029846
0.735187387612
0.712447788937
0.676836784388
0.628380637401
0.567144916838
0.493240186210
0.406824230792
0.308102179865
0.197325511123
0.074790545877
-0.059163239088
-0.204154939256
-0.359763953515
-0.525531743111
-0.700963677262
-0.885531045908
-1.078673337071
-1.279800893235
-1.488298080579
-1.703527127685
-1.924832815588
-2.151548225411
-2.383001765139
-2.618525686861
-2.857466239343
-3.099195424044
-3.343123950117
-3.588714296707
-3.835491669392
-4.083049076278
-4.331041128868
-2.289580345154
0.435806274414
0.860412629295
0.835359553368
0.796392709268
0.743491759826
0.676688273854
0.596069932365
0.501780426956
0.394017344260
0.273029371907
0.139113475221
-0.007387707593
-0.166088210642
-0.336560880435
-0.518339405425
-0.710920345581
-0.913765281286
-1.126303210642
-1.347933339790
-1.578028434591
-1.815938935917
-2.060998086160
-2.312528371105
-2.569849645570
-2.832289371438
-3.099195424044
-3.369951853878
-3.643997699179
-3.920848203767
-4.200116250804
-4.481529081377
-4.764931413226
-2.525131225586
0.506821632385
1.001171685764
0.973816982872
0.931438708406
0.873958255573
0.801369049431
0.713736161262
0.611191584288
0.493928540873
0.362196235450
0.216295459524
0.056575024016
-0.116571153400
-0.302706506934
-0.501354016141
-0.711998304130
-0.934087797637
-1.167037104351
-1.410229774238
-1.663021637880
-1.924744958753
-2.194713701969
-2.472230314467
-2.756594536624
-3.047114924956
-3.343123950117
-3.643997699179
-3.949181227812
-4.258220163751
-4.570797590087
-4.886771322520
-5.206198859043
-2.764662742615
0.586181640625
1.158769415323
1.129200247090
1.083406528798
1.021241041422
0.942659439795
0.847709036699
0.736516076719
0.609275040976
0.466240530517
0.307721315793
0.134075971640
-0.054290407589
-0.256928801087
-0.473348453353
-0.703018887958
-0.945371927613
-1.199803889389
-1.465678129386
-1.742328137278
-2.029061431135
-2.325164583621
-2.629909833711
-2.942563921699
-3.262400054731
-3.588714296707
-3.920848203767
-4.258220163751
-4.600368417995
-4.947008351256
-5.298103120873
-5.653935001405
-3.007568359375
0.674515724182
1.334605775009
1.303013748343
1.253862484006
1.186935019670
1.102160369796
0.999580907014
0.879328068322
0.741606088813
0.586681412273
0.414875754196
0.226561436230
0.022158111077
-0.197869679549
-0.433014475919
-0.682727649254
-0.946421116842
-1.223469185138
-1.513210682293
-1.814951564510
-2.127968229914
-2.451511857787
-2.784814226944
-3.127095684050
-3.477576281400
-3.835491669392
-4.200116250804
-4.570797590087
-4.947008351256
-5.328425034577
-5.715044718285
-6.107343662003
-3.253218650818
0.772476196289
1.530215217349
1.496931595472
1.444543838010
1.372794762006
1.281619221871
1.171079026405
1.041327327325
0.892589100974
0.725150089944
0.539350247106
0.335579641406
0.114275743554
-0.124078507752
-0.378956210861
-0.649787800585
-0.935962299837
-1.236828652783
-1.551697264956
-1.879841892836
-2.220502065329
-2.572886290747
-2.936176422343
-3.309533755913
-3.692107776313
-4.083049076278
-4.481529081377
-4.886771322520
-5.298103120873
-5.715044718285
-6.137468502105
-6.565885645925
-3.500961303711
0.880738258362
1.747359857804
1.712877376115
1.657408047584
1.580762435667
1.482946190620
1.364076289371
1.224347415259
1.064016782939
0.883396546944
0.682849654616
0.462787397117
0.223667849995
-0.034005204316
-0.309683095369
-0.602772959266
-0.912638399970
-1.238600189630
-1.579937076813
-1.935886780519
-2.305647270412
-2.688378474711
-3.083204627883
-3.489217592575
-3.905481708482
-4.331041128868
-4.764931413226
-5.206198859043
-5.653935001405
-6.107343662003
-6.565885645925
-7.029631537346
-3.750121116638
1.000000000000
0.994141578674
0.976577758789
0.947342872620
0.906494140625
0.854111671448
0.790298461914
0.715180397034
0.628906250000
0.531647682190
0.423599243164
0.304978370667
0.176025390625
0.037003517151
-0.111801147461
-0.270079612732
-0.437500000000
-0.613707542419
-0.798324584961
-0.990950584412
-1.191162109375
-1.398512840271
-1.612533569336
-1.832732200623
-2.058593750000
-2.289580345154
-2.525131225586
-2.764662742615
-3.007568359375
-3.253218650818
-3.500961303711
-3.750121116638
-4.000000000000
