# vtk DataFile Version 2.0
TITLE = "Quad data"
ASCII
DATASET STRUCTURED_GRID
DIMENSIONS 33 33 1
POINTS 1089 FLOAT
0.000000 0.000000 0.000000
0.000000 0.031250 0.000000
0.000000 0.062500 0.000000
0.000000 0.093750 0.000000
0.000000 0.125000 0.000000
0.000000 0.156250 0.000000
0.000000 0.187500 0.000000
0.000000 0.218750 0.000000
0.000000 0.250000 0.000000
0.000000 0.281250 0.000000
0.000000 0.312500 0.000000
0.000000 0.343750 0.000000
0.000000 0.375000 0.000000
0.000000 0.406250 0.000000
0.000000 0.437500 0.000000
0.000000 0.468750 0.000000
0.000000 0.500000 0.000000
0.000000 0.531250 0.000000
0.000000 0.562500 0.000000
0.000000 0.593750 0.000000
0.000000 0.625000 0.000000
0.000000 0.656250 0.000000
0.000000 0.687500 0.000000
0.000000 0.718750 0.000000
0.000000 0.750000 0.000000
0.000000 0.781250 0.000000
0.000000 0.812500 0.000000
0.000000 0.843750 0.000000
0.000000 0.875000 0.000000
0.000000 0.906250 0.000000
0.000000 0.937500 0.000000
0.000000 0.968750 0.000000
0.000000 1.000000 0.000000
0.031250 0.000000 0.000000
0.031250 0.031250 0.000000
0.031250 0.062500 0.000000
0.031250 0.093750 0.000000
0.031250 0.125000 0.000000
0.031250 0.156250 0.000000
0.031250 0.187500 0.000000
0.031250 0.218750 0.000000
0.031250 0.250000 0.000000
0.031250 0.281250 0.000000
0.031250 0.312500 0.000000
0.031250 0.343750 0.000000
0.031250 0.375000 0.000000
0.031250 0.406250 0.000000
0.031250 0.437500 0.000000
0.031250 0.468750 0.000000
0.031250 0.500000 0.000000
0.031250 0.531250 0.000000
0.031250 0.562500 0.000000
0.031250 0.593750 0.000000
0.031250 0.625000 0.000000
0.031250 0.656250 0.000000
0.031250 0.687500 0.000000
0.031250 0.718750 0.000000
0.031250 0.750000 0.000000
0.031250 0.781250 0.000000
0.031250 0.812500 0.000000
0.031250 0.843750 0.000000
0.031250 0.875000 0.000000
0.031250 0.906250 0.000000
0.031250 0.937500 0.000000
0.031250 0.968750 0.000000
0.031250 1.000000 0.000000
0.062500 0.000000 0.000000
0.062500 0.031250 0.000000
0.062500 0.062500 0.000000
0.062500 0.093750 0.000000
0.062500 0.125000 0.000000
0.062500 0.156250 0.000000
0.062500 0.187500 0.000000
0.062500 0.218750 0.000000
0.062500 0.250000 0.000000
0.062500 0.281250 0.000000
0.062500 0.312500 0.000000
0.062500 0.343750 0.000000
0.062500 0.375000 0.000000
0.062500 0.406250 0.000000
0.062500 0.437500 0.000000
0.062500 0.468750 0.000000
0.062500 0.500000 0.000000
0.062500 0.531250 0.000000
0.062500 0.562500 0.000000
0.062500 0.593750 0.000000
0.062500 0.625000 0.000000
0.062500 0.656250 0.000000
0.062500 0.687500 0.000000
0.062500 0.718750 0.000000
0.062500 0.750000 0.000000
0.062500 0.781250 0.000000
0.062500 0.812500 0.000000
0.062500 0.843750 0.000000
0.062500 0.875000 0.000000
0.062500 0.906250 0.000000
0.062500 0.937500 0.000000
0.062500 0.968750 0.000000
0.062500 1.000000 0.000000
0.093750 0.000000 0.000000
0.093750 0.031250 0.000000
0.093750 0.062500 0.000000
0.093750 0.093750 0.000000
0.093750 0.125000 0.000000
0.093750 0.156250 0.000000
0.093750 0.187500 0.000000
0.093750 0.218750 0.000000
0.093750 0.250000 0.000000
0.093750 0.281250 0.000000
0.093750 0.312500 0.000000
0.093750 0.343750 0.000000
0.093750 0.375000 0.000000
0.093750 0.406250 0.000000
0.093750 0.437500 0.000000
0.093750 0.468750 0.000000
0.093750 0.500000 0.000000
0.093750 0.531250 0.000000
0.093750 0.562500 0.000000
0.093750 0.593750 0.000000
0.093750 0.625000 0.000000
0.093750 0.656250 0.000000
0.093750 0.687500 0.000000
0.093750 0.718750 0.000000
0.093750 0.750000 0.000000
0.093750 0.781250 0.000000
0.093750 0.812500 0.000000
0.093750 0.843750 0.000000
0.093750 0.875000 0.000000
0.093750 0.906250 0.000000
0.093750 0.937500 0.000000
0.093750 0.968750 0.000000
0.093750 1.000000 0.000000
0.125000 0.000000 0.000000
0.125000 0.031250 0.000000
0.125000 0.062500 0.000000
0.125000 0.093750 0.000000
0.125000 0.125000 0.000000
0.125000 0.156250 0.000000
0.125000 0.187500 0.000000
0.125000 0.218750 0.000000
0.125000 0.250000 0.000000
0.125000 0.281250 0.000000
0.125000 0.312500 0.000000
0.125000 0.343750 0.000000
0.125000 0.375000 0.000000
0.125000 0.406250 0.000000
0.125000 0.437500 0.000000
0.125000 0.468750 0.000000
0.125000 0.500000 0.000000
0.125000 0.531250 0.000000
0.125000 0.562500 0.000000
0.125000 0.593750 0.000000
0.125000 0.625000 0.000000
0.125000 0.656250 0.000000
0.125000 0.687500 0.000000
0.125000 0.718750 0.000000
0.125000 0.750000 0.000000
0.125000 0.781250 0.000000
0.125000 0.812500 0.000000
0.125000 0.843750 0.000000
0.125000 0.875000 0.000000
0.125000 0.906250 0.000000
0.125000 0.937500 0.000000
0.125000 0.968750 0.000000
0.125000 1.000000 0.000000
0.156250 0.000000 0.000000
0.156250 0.031250 0.000000
0.156250 0.062500 0.000000
0.156250 0.093750 0.000000
0.156250 0.125000 0.000000
0.156250 0.156250 0.000000
0.156250 0.187500 0.000000
0.156250 0.218750 0.000000
0.156250 0.250000 0.000000
0.156250 0.281250 0.000000
0.156250 0.312500 0.000000
0.156250 0.343750 0.000000
0.156250 0.375000 0.000000
0.156250 0.406250 0.000000
0.156250 0.437500 0.000000
0.156250 0.468750 0.000000
0.156250 0.500000 0.000000
0.156250 0.531250 0.000000
0.156250 0.562500 0.000000
0.156250 0.593750 0.000000
0.156250 0.625000 0.000000
0.156250 0.656250 0.000000
0.156250 0.687500 0.000000
0.156250 0.718750 0.000000
0.156250 0.750000 0.000000
0.156250 0.781250 0.000000
0.156250 0.812500 0.000000
0.156250 0.843750 0.000000
0.156250 0.875000 0.000000
0.156250 0.906250 0.000000
0.156250 0.937500 0.000000
0.156250 0.968750 0.000000
0.156250 1.000000 0.000000
0.187500 0.000000 0.000000
0.187500 0.031250 0.000000
0.187500 0.062500 0.000000
0.187500 0.093750 0.000000
0.187500 0.125000 0.000000
0.187500 0.156250 0.000000
0.187500 0.187500 0.000000
0.187500 0.218750 0.000000
0.187500 0.250000 0.000000
0.187500 0.281250 0.000000
0.187500 0.312500 0.000000
0.187500 0.343750 0.000000
0.187500 0.375000 0.000000
0.187500 0.406250 0.000000
0.187500 0.437500 0.000000
0.187500 0.468750 0.000000
0.187500 0.500000 0.000000
0.187500 0.531250 0.000000
0.187500 0.562500 0.000000
0.187500 0.593750 0.000000
0.187500 0.625000 0.000000
0.187500 0.656250 0.000000
0.187500 0.687500 0.000000
0.187500 0.718750 0.000000
0.187500 0.750000 0.000000
0.187500 0.781250 0.000000
0.187500 0.812500 0.000000
0.187500 0.843750 0.000000
0.187500 0.875000 0.000000
0.187500 0.906250 0.000000
0.187500 0.937500 0.000000
0.187500 0.968750 0.000000
0.187500 1.000000 0.000000
0.218750 0.000000 0.000000
0.218750 0.031250 0.000000
0.218750 0.062500 0.000000
0.218750 0.093750 0.000000
0.218750 0.125000 0.000000
0.218750 0.156250 0.000000
0.218750 0.187500 0.000000
0.218750 0.218750 0.000000
0.218750 0.250000 0.000000
0.218750 0.281250 0.000000
0.218750 0.312500 0.000000
0.218750 0.343750 0.000000
0.218750 0.375000 0.000000
0.218750 0.406250 0.000000
0.218750 0.437500 0.000000
0.218750 0.468750 0.000000
0.218750 0.500000 0.000000
0.218750 0.531250 0.000000
0.218750 0.562500 0.000000
0.218750 0.593750 0.000000
0.218750 0.625000 0.000000
0.218750 0.656250 0.000000
0.218750 0.687500 0.000000
0.218750 0.718750 0.000000
0.218750 0.750000 0.000000
0.218750 0.781250 0.000000
0.218750 0.812500 0.000000
0.218750 0.843750 0.000000
0.218750 0.875000 0.000000
0.218750 0.906250 0.000000
0.218750 0.937500 0.000000
0.218750 0.968750 0.000000
0.218750 1.000000 0.000000
0.250000 0.000000 0.000000
0.250000 0.031250 0.000000
0.250000 0.062500 0.000000
0.250000 0.093750 0.000000
0.250000 0.125000 0.000000
0.250000 0.156250 0.000000
0.250000 0.187500 0.000000
0.250000 0.218750 0.000000
0.250000 0.250000 0.000000
0.250000 0.281250 0.000000
0.250000 0.312500 0.000000
0.250000 0.343750 0.000000
0.250000 0.375000 0.000000
0.250000 0.406250 0.000000
0.250000 0.437500 0.000000
0.250000 0.468750 0.000000
0.250000 0.500000 0.000000
0.250000 0.531250 0.000000
0.250000 0.562500 0.000000
0.250000 0.593750 0.000000
0.250000 0.625000 0.000000
0.250000 0.656250 0.000000
0.250000 0.687500 0.000000
0.250000 0.718750 0.000000
0.250000 0.750000 0.000000
0.250000 0.781250 0.000000
0.250000 0.812500 0.000000
0.250000 0.843750 0.000000
0.250000 0.875000 0.000000
0.250000 0.906250 0.000000
0.250000 0.937500 0.000000
0.250000 0.968750 0.000000
0.250000 1.000000 0.000000
0.281250 0.000000 0.000000
0.281250 0.031250 0.000000
0.281250 0.062500 0.000000
0.281250 0.093750 0.000000
0.281250 0.125000 0.000000
0.281250 0.156250 0.000000
0.281250 0.187500 0.000000
0.281250 0.218750 0.000000
0.281250 0.250000 0.000000
0.281250 0.281250 0.000000
0.281250 0.312500 0.000000
0.281250 0.343750 0.000000
0.281250 0.375000 0.000000
0.281250 0.406250 0.000000
0.281250 0.437500 0.000000
0.281250 0.468750 0.000000
0.281250 0.500000 0.000000
0.281250 0.531250 0.000000
0.281250 0.562500 0.000000
0.281250 0.593750 0.000000
0.281250 0.625000 0.000000
0.281250 0.656250 0.000000
0.281250 0.687500 0.000000
0.281250 0.718750 0.000000
0.281250 0.750000 0.000000
0.281250 0.781250 0.000000
0.281250 0.812500 0.000000
0.281250 0.843750 0.000000
0.281250 0.875000 0.000000
0.281250 0.906250 0.000000
0.281250 0.937500 0.000000
0.281250 0.968750 0.000000
0.281250 1.000000 0.000000
0.312500 0.000000 0.000000
0.312500 0.031250 0.000000
0.312500 0.062500 0.000000
0.312500 0.093750 0.000000
0.312500 0.125000 0.000000
0.312500 0.156250 0.000000
0.312500 0.187500 0.000000
0.312500 0.218750 0.000000
0.312500 0.250000 0.000000
0.312500 0.281250 0.000000
0.312500 0.312500 0.000000
0.312500 0.343750 0.000000
0.312500 0.375000 0.000000
0.312500 0.406250 0.000000
0.312500 0.437500 0.000000
0.312500 0.468750 0.000000
0.312500 0.500000 0.000000
0.312500 0.531250 0.000000
0.312500 0.562500 0.000000
0.312500 0.593750 0.000000
0.312500 0.625000 0.000000
0.312500 0.656250 0.000000
0.312500 0.687500 0.000000
0.312500 0.718750 0.000000
0.312500 0.750000 0.000000
0.312500 0.781250 0.000000
0.312500 0.812500 0.000000
0.312500 0.843750 0.000000
0.312500 0.875000 0.000000
0.312500 0.906250 0.000000
0.312500 0.937500 0.000000
0.312500 0.968750 0.000000
0.312500 1.000000 0.000000
0.343750 0.000000 0.000000
0.343750 0.031250 0.000000
0.343750 0.062500 0.000000
[...]
POINT_DATA 1089
SCALARS phi FLOAT 1
LOOKUP_TABLE default
0.000000000000
0.000000953674
0.000015258789
0.000077247620
0.000244140625
0.000596046448
0.001235961914
0.002289772034
0.003906250000
0.006257057190
0.009536743164
0.013962745667
0.019775390625
0.027237892151
0.036636352539
0.048279762268
0.062500000000
0.079651832581
0.100112915039
0.124283790588
0.152587890625
0.185471534729
0.223403930664
0.266877174377
0.316406250000
0.372529029846
0.435806274414
0.506821632385
0.586181640625
0.674515724182
0.772476196289
0.880738258362
1.000000000000
0.000000953674
-0.050453613487
-0.000694944738
-0.002870305144
-0.001394914023
0.000230712526
0.001157688972
0.002126402204
0.003631330794
0.005896972661
0.009104298490
0.013463521650
0.019214813287
0.026623690813
0.035979773419
0.047596153936
0.061808948926
0.078977188557
0.099482919737
0.123731461803
0.152151877842
0.185197406512
0.223344564619
0.267088616016
0.316936148598
0.373411567842
0.437123195461
0.508891586005
0.589485915266
0.677364305602
0.766968057193
0.918078930236
0.994141578674
0.000015258789
-0.000694944738
0.018829001210
0.005003871113
0.000956221857
0.000299684967
0.000497518699
0.001211578230
0.002474954666
0.004417307126
0.007230058737
0.011132289298
0.016360927279
0.023174826170
0.031857001533
0.042713789701
0.056073877708
0.072288099748
0.091729647752
0.114794551654
0.141902583524
0.173498148893
0.210048750173
0.252036496579
0.299943171050
0.354258321542
0.415596287226
0.484957557733
0.563451023499
0.648802545344
0.730161231627
0.862358030210
0.976577758789
0.000077247620
-0.002870305144
0.005003871113
-0.002300337012
-0.002357861078
-0.001256570489
-0.000586358350
-0.000039397863
0.000814635295
0.002277798120
0.004581003372
0.007940103508
0.012587502535
0.018783245751
0.026814316278
0.036991513914
0.049647942595
0.065138905245
0.083842255269
0.106159040763
0.132514760109
0.163360733457
0.199172356210
0.240437794165
0.287636262439
0.341241624203
0.401863774047
0.470605326743
0.548908942169
0.634825962635
0.716351827336
0.842332632947
0.947342872620
0.000244140625
-0.001394914023
0.000956221857
-0.002357861078
-0.001887512186
-0.001430678661
-0.001543598902
-0.001723918809
-0.001556355367
-0.000794077098
0.000749033825
0.003267908192
0.006990429129
0.012177714341
0.019117928334
0.028122108714
0.039523059410
0.053675616241
0.070957112239
0.091768082238
0.116533747422
0.145705832945
0.179761043150
0.219188423123
0.264462904878
0.316041547821
0.374505911187
0.440956990050
0.516974237731
0.601047173307
0.681732334719
0.804740784310
0.906494140625
0.000596046448
0.000230712526
0.000299684967
-0.001256570489
-0.001430678661
-0.002014667956
-0.002991087572
-0.003924715432
-0.004525705253
-0.004619023132
-0.004044208422
-0.002608197152
-0.000078443431
0.003809474229
0.009344552825
0.016837378921
0.026620004939
0.039046542764
0.054493609498
0.073360973985
0.096073130312
0.123081450127
0.154863149231
0.191908692214
0.234693396354
0.283667393175
0.339386711929
0.402903324446
0.475780979458
0.556786256887
0.635357640455
0.754533074585
0.854111671448
0.001235961914
0.001157688972
0.000497518699
-0.000586358350
-0.001543598902
-0.002991087572
-0.004721985777
-0.006431497672
-0.007926251063
-0.009061371117
-0.009673495604
-0.009559189943
-0.008478854129
-0.006165593518
-0.002330395709
0.003336763231
0.011167554948
0.021515944581
0.034758477374
0.051294788250
0.071549140481
0.095972741671
0.125043248822
0.159253154512
0.199081983137
0.244982923581
0.297499170436
0.357626498486
0.426847145167
0.504101995144
0.579754112753
0.693730948933
0.790298461914
0.002289772034
0.002126402204
0.001211578230
-0.000039397863
-0.001723918809
-0.003924715432
-0.006431497672
-0.009044273603
-0.011616748685
-0.014004267644
-0.016030000063
-0.017480183623
-0.018111160703
-0.017655819882
-0.015826032979
-0.012312420685
-0.006783489250
0.001114825027
0.011759231323
0.025549441719
0.042909587019
0.064290508905
0.090169682193
0.121041035906
0.157389478745
0.199676988897
0.248444421848
0.304636783671
0.369637403294
0.442543131884
0.514720480333
0.622400655164
0.715180397034
0.003906250000
0.003631330794
0.002474954666
0.000814635295
-0.001556355367
-0.004525705253
-0.007926251063
-0.011616748685
-0.015464079884
-0.019313068759
-0.022975149960
-0.026231042915
-0.028836516542
-0.030525711651
-0.031011638189
-0.029985418780
-0.027115595735
-0.022047946365
-0.014405577536
-0.003788688664
0.010226668709
0.028090694437
0.050279992572
0.077288953851
0.109607579801
0.147708843588
0.192136512114
0.243788212889
0.303943830753
0.371875726066
0.440079057106
0.540514895579
0.628906250000
0.006257057190
0.005896972661
0.004417307126
0.002277798120
-0.000794077098
-0.004619023132
-0.009061371117
-0.014004267644
-0.019313068759
-0.024822658352
-0.030337986498
-0.035638402679
-0.040480894326
-0.044601085453
-0.047712814900
-0.049507419897
-0.049653354205
-0.047796221568
-0.043558955344
-0.036541656270
-0.026320556227
-0.012446226412
0.005556636559
0.028182149462
0.055924862373
0.089269326126
0.128763730976
0.175256847157
0.229919068742
0.292225740198
0.355942313650
0.448208232679
0.531647682190
0.009536743164
0.009104298490
0.007230058737
0.004581003372
0.000749033825
-0.004044208422
-0.009673495604
-0.016030000063
-0.022975149960
-0.030337986498
-0.037921090529
-0.045504407976
-0.052846383678
-0.059683671246
-0.065730480137
-0.070678119862
-0.074194891248
-0.075926235564
-0.075494919610
-0.072500912704
-0.066520572711
-0.057105248236
-0.043781119422
-0.026054710484
-0.003427169495
0.024597934199
0.058573169671
0.099293910610
0.147811623223
0.203830568771
0.262529199394
0.345689304056
0.423599243164
0.013962745667
0.013463521650
0.011132289298
0.007940103508
0.003267908192
-0.002608197152
-0.009559189943
-0.017480183623
-0.026231042915
-0.035638402679
-0.045504407976
-0.055609924959
-0.065714393512
-0.075554956677
-0.084845870551
-0.093278309138
-0.100520428297
-0.106217540972
-0.109992257163
-0.111444383073
-0.110150344930
-0.105662238509
-0.097507787426
-0.085194267598
-0.068218414690
-0.046071363193
-0.018196441741
0.016142750462
0.057867551160
0.106934705830
0.160075097809
0.233188989121
0.304978370667
0.019775390625
0.019214813287
0.016360927279
0.012587502535
0.006990429129
-0.000078443431
-0.008478854129
-0.018111160703
-0.028836516542
-0.040480894326
-0.052846383678
-0.065714393512
-0.078844841622
-0.091975017270
-0.104819094871
-0.117068117827
-0.128390146688
-0.138430407478
-0.146811365166
-0.153132643145
-0.156970701302
-0.157878369933
-0.155384952426
-0.148998475298
-0.138210926577
-0.122500160882
-0.101305460461
-0.073954967842
-0.039669023070
0.001783737946
0.048822223272
0.110953212961
0.176025390625
0.027237892151
0.026623690813
0.023174826170
0.018783245751
0.012177714341
0.003809474229
-0.006165593518
-0.017655819882
-0.030525711651
-0.044601085453
-0.059683671246
-0.075554956677
-0.091975017270
-0.108681163327
-0.125387492660
-0.141784973202
-0.157541623911
-0.172302615891
-0.185690276756
-0.197304036577
-0.206720377740
-0.213492883537
-0.217152493854
-0.217207965608
-0.213146117906
-0.204430519741
-0.190496235682
-0.170741219721
-0.144538769152
-0.111361564620
-0.070970849032
-0.020752427528
0.037003517151
0.036636352539
0.035979773419
0.031857001533
0.026814316278
0.019117928334
0.009344552825
-0.002330395709
-0.015826032979
-0.031011638189
-0.047712814900
-0.065730480137
-0.084845870551
-0.104819094871
-0.125387492660
-0.146265142731
-0.167142993832
-0.187689059831
-0.207548472888
-0.226343423561
-0.243673141227
-0.259114133265
-0.272220776804
-0.282525729979
-0.289538476422
-0.292740240342
-0.291579258920
-0.285486091673
-0.273933483975
-0.256458552513
-0.232217286017
-0.199023085343
-0.161639380844
-0.111801147461
0.048279762268
0.047596153936
0.042713789701
0.036991513914
0.028122108714
0.016837378921
0.003336763231
-0.012312420685
-0.029985418780
-0.049507419897
-0.070678119862
-0.093278309138
-0.117068117827
-0.141784973202
-0.167142993832
-0.192833145903
-0.218523454178
-0.243859014264
-0.268461873493
-0.291931051941
-0.313843087604
-0.333753199940
-0.351195859593
-0.365681291404
-0.376684724265
-0.383638043980
-0.385966992756
-0.383223871754
-0.375120072500
-0.360474769236
-0.335029575507
-0.311395309320
-0.270079612732
0.062500000000
0.061808948926
0.056073877708
0.049647942595
0.039523059410
0.026620004939
0.011167554948
-0.006783489250
-0.027115595735
-0.049653354205
-0.074194891248
-0.100520428297
-0.128390146688
-0.157541623911
-0.187689059831
-0.218523454178
-0.249712843959
-0.280902282588
-0.311713663513
-0.341745784861
-0.370575216018
-0.397758062622
-0.422830701252
-0.445304122833
-0.464647193388
-0.480274484962
-0.491606636477
-0.498280103550
-0.500190627004
-0.495801127043
-0.478661815650
-0.469684206027
-0.437500000000
0.079651832581
0.078977188557
0.072288099748
0.065138905245
0.053675616241
0.039046542764
0.021515944581
0.001114825027
-0.022047946365
-0.047796221568
-0.075926235564
-0.106217540972
-0.138430407478
-0.172302615891
-0.207548472888
-0.243859014264
-0.280902282588
-0.318323279148
-0.355743728718
-0.392762188163
-0.428955249353
-0.463879937592
-0.497074623668
-0.528051100381
-0.556271545816
-0.581132334258
-0.602048769650
-0.618745913407
-0.631313547420
-0.637839638950
-0.629568006484
-0.636146553568
-0.613707542419
0.100112915039
0.099482919737
0.091729647752
0.083842255269
0.070957112239
0.054493609498
0.034758477374
0.011759231323
-0.014405577536
-0.043558955344
-0.075494919610
-0.109992257163
-0.146811365166
-0.185690276756
-0.226343423561
-0.268461873493
-0.311713663513
-0.355743728718
-0.400173604334
-0.444601577721
-0.488604244363
-0.531739576767
-0.573548034334
-0.613542277244
-0.651177537058
-0.685831207440
-0.716913089820
-0.744241136371
-0.768108430963
-0.786210049019
-0.787373322012
-0.810399481808
-0.798324584961
0.124283790588
0.123731461803
0.114794551654
0.106159040763
0.091768082238
0.073360973985
0.051294788250
0.025549441719
-0.003788688664
-0.036541656270
-0.072500912704
-0.111444383073
-0.153132643145
-0.197304036577
-0.243673141227
-0.291931051941
-0.341745784861
-0.392762188163
-0.444601577721
-0.496861934483
-0.549119836260
-0.600934242682
-0.651847832032
-0.701374262777
-0.748961656427
-0.793967747144
-0.835796689655
-0.874363351940
-0.910172826133
-0.940510088258
-0.951681062170
-0.992037388200
-0.990950584412
0.152587890625
0.152151877842
0.141902583524
0.132514760109
0.116533747422
0.096073130312
0.071549140481
0.042909587019
0.010226668709
-0.026320556227
-0.066520572711
-0.110150344930
-0.156970701302
-0.206720377740
-0.259114133265
-0.313843087604
-0.370575216018
-0.428955249353
-0.488604244363
-0.549119836260
-0.610078580064
-0.671040507685
-0.731550723404
-0.791124110630
-0.849201601517
-0.905120612993
-0.958279365606
-1.008693182620
-1.057087106016
-1.100319507403
-1.122075513067
-1.180633415585
-1.191162109375
0.185471534729
0.185197406512
0.173498148893
0.163360733457
0.145705832945
0.123081450127
0.095972741671
0.064290508905
0.028090694437
-0.012446226412
-0.057105248236
-0.105662238509
-0.157878369933
-0.213492883537
-0.272220776804
-0.333753199940
-0.397758062622
-0.463879937592
-0.531739576767
-0.600934242682
-0.671040507685
-0.741619644437
-0.812219492506
-0.882356453674
-0.951464142122
-1.018858755336
-1.083931787601
-1.146801731706
-1.208420604155
-1.265204579778
-1.298124788764
-1.375740796431
-1.398512840271
0.223403930664
0.223344564619
0.210048750173
0.199172356210
0.179761043150
0.154863149231
0.125043248822
0.090169682193
0.050279992572
0.005556636559
-0.043781119422
-0.097507787426
-0.155384952426
-0.217152493854
-0.282525729979
-0.351195859593
-0.422830701252
-0.497074623668
-0.573548034334
-0.651847832032
-0.731550723404
-0.812219492506
-0.893405084961
-0.974625613879
-1.055306852635
-1.134742143650
-1.212314507685
-1.288247389307
-1.363726377227
-1.434711846449
-1.479375222015
-1.576889548614
-1.612533569336
0.266877174377
0.267088616016
0.252036496579
0.240437794165
0.219188423123
0.191908692214
0.159253154512
0.121041035906
0.077288953851
0.028182149462
-0.026054710484
-0.085194267598
-0.148998475298
-0.217207965608
-0.289538476422
-0.365681291404
-0.445304122833
-0.528051100381
-0.613542277244
-0.701374262777
-0.791124110630
-0.882356453674
-0.974625613879
-1.067451149867
-1.160249540306
-1.252288417065
-1.342939686565
-1.432533775379
-1.522498431809
-1.608329463177
-1.665322160440
-1.783570849419
-1.832732200623
0.316406250000
0.316936148598
0.299943171050
0.287636262439
0.264462904878
0.234693396354
0.199081983137
0.157389478745
0.109607579801
0.055924862373
-0.003427169495
-0.068218414690
-0.138210926577
-0.213146117906
-0.292740240342
-0.376684724265
-0.464647193388
-0.556271545816
-0.651177537058
-0.748961656427
-0.849201601517
-0.951464142122
-1.055306852635
-1.160249540306
-1.265696586949
-1.370886116058
-1.475177331997
-1.579014180510
-1.684082804666
-1.785414520378
-1.855360455795
-1.995212680933
-2.058593750000
0.372529029846
0.373411567842
0.354258321542
0.341241624203
0.316041547821
0.283667393175
0.244982923581
0.199676988897
0.147708843588
0.089269326126
0.024597934199
-0.046071363193
-0.122500160882
-0.204430519741
-0.291579258920
-0.383638043980
-0.480274484962
-0.581132334258
-0.685831207440
-0.793967747144
-0.905120612993
-1.018858755336
-1.134742143650
-1.252288417065
-1.370886116058
-1.489741430284
-1.608205806694
-1.726855952328
-1.847666733203
-1.965210687727
-2.048818876230
-2.211206741649
-2.289580345154
0.435806274414
0.437123195461
0.415596287226
0.401863774047
0.374505911187
0.339386711929
0.297499170436
0.248444421848
0.192136512114
0.128763730976
0.058573169671
-0.018196441741
-0.101305460461
-0.190496235682
-0.285486091673
-0.385966992756
-0.491606636477
-0.602048769650
-0.716913089820
-0.835796689655
-0.958279365606
-1.083931787601
-1.212314507685
-1.342939686565
-1.475177331997
-1.608205806694
-1.741388778185
-1.875474550672
-2.012763023964
-2.147340915346
-2.245374623823
-2.431144355864
-2.525131225586
0.506821632385
0.508891586005
0.484957557733
0.470605326743
0.440956990050
0.402903324446
0.357626498486
0.304636783671
0.243788212889
0.175256847157
0.099293910610
0.016142750462
-0.073954967842
-0.170741219721
-0.273933483975
-0.383223871754
-0.498280103550
-0.618745913407
-0.744241136371
-0.874363351940
-1.008693182620
-1.146801731706
-1.288247389307
-1.432533775379
-1.579014180510
-1.726855952328
-1.875474550672
-2.025835393750
-2.180546388655
-2.333027388011
-2.445948309745
-2.655250669001
-2.764662742615
0.586181640625
0.589485915266
0.563451023499
0.548908942169
0.516974237731
0.475780979458
0.426847145167
0.369637403294
0.303943830753
0.229919068742
0.147811623223
0.057867551160
-0.039669023070
-0.144538769152
-0.256458552513
-0.375120072500
-0.500190627004
-0.631313547420
-0.768108430963
-0.910172826133
-1.057087106016
-1.208420604155
-1.363726377227
-1.522498431809
-1.684082804666
-1.847666733203
-2.012763023964
-2.180546388655
-2.353718588489
-2.524510791697
-2.651621735975
-2.883349801935
-3.007568359375
0.674515724182
0.677364305602
0.648802545344
0.634825962635
0.601047173307
0.556786256887
0.504101995144
0.442543131884
0.371875726066
0.292225740198
0.203830568771
0.106934705830
0.001783737946
-0.111361564620
-0.232217286017
-0.360474769236
-0.495801127043
-0.637839638950
-0.786210049019
-0.940510088258
-1.100319507403
-1.265204579778
-1.434711846449
-1.608329463177
-1.785414520378
-1.965210687727
-2.147340915346
-2.333027388011
-2.524510791697
-2.712085464148
-2.851134142839
-3.106616996384
-3.253218650818
0.772476196289
0.766968057193
0.730161231627
0.716351827336
0.681732334719
0.635357640455
0.579754112753
0.514720480333
0.440079057106
0.355942313650
0.262529199394
0.160075097809
0.048822223272
-0.070970849032
-0.199023085343
-0.335029575507
-0.478661815650
-0.629568006484
-0.787373322012
-0.951681062170
-1.122075513067
-1.298124788764
-1.479375222015
-1.665322160440
-1.855360455795
-2.048818876230
-2.245374623823
-2.445948309745
-2.651621735975
-2.851134142839
-3.002830143535
-3.302195735836
-3.500961303711
0.880738258362
0.918078930236
0.862358030210
0.842332632947
0.804740784310
0.754533074585
0.693730948933
0.622400655164
0.540514895579
0.448208232679
0.345689304056
0.233188989121
0.110953212961
-0.020752427528
-0.161639380844
-0.311395309320
-0.469684206027
-0.636146553568
-0.810399481808
-0.992037388200
-1.180633415585
-1.375740796431
-1.576889548614
-1.783570849419
-1.995212680933
-2.211206741649
-2.431144355864
-2.655250669001
-2.883349801935
-3.106616996384
-3.302195735836
-3.694236380350
-3.750121116638
1.000000000000
0.994141578674
0.976577758789
0.947342872620
0.906494140625
0.854111671448
0.790298461914
0.715180397034
0.628906250000
0.531647682190
0.423599243164
0.304978370667
0.176025390625
0.037003517151
-0.111801147461
-0.270079612732
-0.437500000000
-0.613707542419
-0.798324584961
-0.990950584412
-1.191162109375
-1.398512840271
-1.612533569336
-1.832732200623
-2.058593750000
-2.289580345154
-2.525131225586
-2.764662742615
-3.007568359375
-3.253218650818
-3.500961303711
-3.750121116638
-4.000000000000
