# vtk DataFile Version 2.0
TITLE = "Quad data"
ASCII
DATASET STRUCTURED_GRID
DIMENSIONS 33 33 1
POINTS 1089 FLOAT
0.000000 0.000000 0.000000
0.000000 0.031250 0.000000
0.000000 0.062500 0.000000
0.000000 0.093750 0.000000
0.000000 0.125000 0.000000
0.000000 0.156250 0.000000
0.000000 0.187500 0.000000
0.000000 0.218750 0.000000
0.000000 0.250000 0.000000
0.000000 0.281250 0.000000
0.000000 0.312500 0.000000
0.000000 0.343750 0.000000
0.000000 0.375000 0.000000
0.000000 0.406250 0.000000
0.000000 0.437500 0.000000
0.000000 0.468750 0.000000
0.000000 0.500000 0.000000
0.000000 0.531250 0.000000
0.000000 0.562500 0.000000
0.000000 0.593750 0.000000
0.000000 0.625000 0.000000
0.000000 0.656250 0.000000
0.000000 0.687500 0.000000
0.000000 0.718750 0.000000
0.000000 0.750000 0.000000
0.000000 0.781250 0.000000
0.000000 0.812500 0.000000
0.000000 0.843750 0.000000
0.000000 0.875000 0.000000
0.000000 0.906250 0.000000
0.000000 0.937500 0.000000
0.000000 0.968750 0.000000
0.000000 1.000000 0.000000
0.031250 0.000000 0.000000
0.031250 0.031250 0.000000
0.031250 0.062500 0.000000
0.031250 0.093750 0.000000
0.031250 0.125000 0.000000
0.031250 0.156250 0.000000
0.031250 0.187500 0.000000
0.031250 0.218750 0.000000
0.031250 0.250000 0.000000
0.031250 0.281250 0.000000
0.031250 0.312500 0.000000
0.031250 0.343750 0.000000
0.031250 0.375000 0.000000
0.031250 0.406250 0.000000
0.031250 0.437500 0.000000
0.031250 0.468750 0.000000
0.031250 0.500000 0.000000
0.031250 0.531250 0.000000
0.031250 0.562500 0.000000
0.031250 0.593750 0.000000
0.031250 0.625000 0.000000
0.031250 0.656250 0.000000
0.031250 0.687500 0.000000
0.031250 0.718750 0.000000
0.031250 0.750000 0.000000
0.031250 0.781250 0.000000
0.031250 0.812500 0.000000
0.031250 0.843750 0.000000
0.031250 0.875000 0.000000
0.031250 0.906250 0.000000
0.031250 0.937500 0.000000
0.031250 0.968750 0.000000
0.031250 1.000000 0.000000
0.062500 0.000000 0.000000
0.062500 0.031250 0.000000
0.062500 0.062500 0.000000
0.062500 0.093750 0.000000
0.062500 0.125000 0.000000
0.062500 0.156250 0.000000
0.062500 0.187500 0.000000
0.062500 0.218750 0.000000
0.062500 0.250000 0.000000
0.062500 0.281250 0.000000
0.062500 0.312500 0.000000
0.062500 0.343750 0.000000
0.062500 0.375000 0.000000
0.062500 0.406250 0.000000
0.062500 0.437500 0.000000
0.062500 0.468750 0.000000
0.062500 0.500000 0.000000
0.062500 0.531250 0.000000
0.062500 0.562500 0.000000
0.062500 0.593750 0.000000
0.062500 0.625000 0.000000
0.062500 0.656250 0.000000
0.062500 0.687500 0.000000
0.062500 0.718750 0.000000
0.062500 0.750000 0.000000
0.062500 0.781250 0.000000
0.062500 0.812500 0.000000
0.062500 0.843750 0.000000
0.062500 0.875000 0.000000
0.062500 0.906250 0.000000
0.062500 0.937500 0.000000
0.062500 0.968750 0.000000
0.062500 1.000000 0.000000
0.093750 0.000000 0.000000
0.093750 0.031250 0.000000
0.093750 0.062500 0.000000
0.093750 0.093750 0.000000
0.093750 0.125000 0.000000
0.093750 0.156250 0.000000
0.093750 0.187500 0.000000
0.093750 0.218750 0.000000
0.093750 0.250000 0.000000
0.093750 0.281250 0.000000
0.093750 0.312500 0.000000
0.093750 0.343750 0.000000
0.093750 0.375000 0.000000
0.093750 0.406250 0.000000
0.093750 0.437500 0.000000
0.093750 0.468750 0.000000
0.093750 0.500000 0.000000
0.093750 0.531250 0.000000
0.093750 0.562500 0.000000
0.093750 0.593750 0.000000
0.093750 0.625000 0.000000
0.093750 0.656250 0.000000
0.093750 0.687500 0.000000
0.093750 0.718750 0.000000
0.093750 0.750000 0.000000
0.093750 0.781250 0.000000
0.093750 0.812500 0.000000
0.093750 0.843750 0.000000
0.093750 0.875000 0.000000
0.093750 0.906250 0.000000
0.093750 0.937500 0.000000
0.093750 0.968750 0.000000
0.093750 1.000000 0.000000
0.125000 0.000000 0.000000
0.125000 0.031250 0.000000
0.125000 0.062500 0.000000
0.125000 0.093750 0.000000
0.125000 0.125000 0.000000
0.125000 0.156250 0.000000
0.125000 0.187500 0.000000
0.125000 0.218750 0.000000
0.125000 0.250000 0.000000
0.125000 0.281250 0.000000
0.125000 0.312500 0.000000
0.125000 0.343750 0.000000
0.125000 0.375000 0.000000
0.125000 0.406250 0.000000
0.125000 0.437500 0.000000
0.125000 0.468750 0.000000
0.125000 0.500000 0.000000
0.125000 0.531250 0.000000
0.125000 0.562500 0.000000
0.125000 0.593750 0.000000
0.125000 0.625000 0.000000
0.125000 0.656250 0.000000
0.125000 0.687500 0.000000
0.125000 0.718750 0.000000
0.125000 0.750000 0.000000
0.125000 0.781250 0.000000
0.125000 0.812500 0.000000
0.125000 0.843750 0.000000
0.125000 0.875000 0.000000
0.125000 0.906250 0.000000
0.125000 0.937500 0.000000
0.125000 0.968750 0.000000
0.125000 1.000000 0.000000
0.156250 0.000000 0.000000
0.156250 0.031250 0.000000
0.156250 0.062500 0.000000
0.156250 0.093750 0.000000
0.156250 0.125000 0.000000
0.156250 0.156250 0.000000
0.156250 0.187500 0.000000
0.156250 0.218750 0.000000
0.156250 0.250000 0.000000
0.156250 0.281250 0.000000
0.156250 0.312500 0.000000
0.156250 0.343750 0.000000
0.156250 0.375000 0.000000
0.156250 0.406250 0.000000
0.156250 0.437500 0.000000
0.156250 0.468750 0.000000
0.156250 0.500000 0.000000
0.156250 0.531250 0.000000
0.156250 0.562500 0.000000
0.156250 0.593750 0.000000
0.156250 0.625000 0.000000
0.156250 0.656250 0.000000
0.156250 0.687500 0.000000
0.156250 0.718750 0.000000
0.156250 0.750000 0.000000
0.156250 0.781250 0.000000
0.156250 0.812500 0.000000
0.156250 0.843750 0.000000
0.156250 0.875000 0.000000
0.156250 0.906250 0.000000
0.156250 0.937500 0.000000
0.156250 0.968750 0.000000
0.156250 1.000000 0.000000
0.187500 0.000000 0.000000
0.187500 0.031250 0.000000
0.187500 0.062500 0.000000
0.187500 0.093750 0.000000
0.187500 0.125000 0.000000
0.187500 0.156250 0.000000
0.187500 0.187500 0.000000
0.187500 0.218750 0.000000
0.187500 0.250000 0.000000
0.187500 0.281250 0.000000
0.187500 0.312500 0.000000
0.187500 0.343750 0.000000
0.187500 0.375000 0.000000
0.187500 0.406250 0.000000
0.187500 0.437500 0.000000
0.187500 0.468750 0.000000
0.187500 0.500000 0.000000
0.187500 0.531250 0.000000
0.187500 0.562500 0.000000
0.187500 0.593750 0.000000
0.187500 0.625000 0.000000
0.187500 0.656250 0.000000
0.187500 0.687500 0.000000
0.187500 0.718750 0.000000
0.187500 0.750000 0.000000
0.187500 0.781250 0.000000
0.187500 0.812500 0.000000
0.187500 0.843750 0.000000
0.187500 0.875000 0.000000
0.187500 0.906250 0.000000
0.187500 0.937500 0.000000
0.187500 0.968750 0.000000
0.187500 1.000000 0.000000
0.218750 0.000000 0.000000
0.218750 0.031250 0.000000
0.218750 0.062500 0.000000
0.218750 0.093750 0.000000
0.218750 0.125000 0.000000
0.218750 0.156250 0.000000
0.218750 0.187500 0.000000
0.218750 0.218750 0.000000
0.218750 0.250000 0.000000
0.218750 0.281250 0.000000
0.218750 0.312500 0.000000
0.218750 0.343750 0.000000
0.218750 0.375000 0.000000
0.218750 0.406250 0.000000
0.218750 0.437500 0.000000
0.218750 0.468750 0.000000
0.218750 0.500000 0.000000
0.218750 0.531250 0.000000
0.218750 0.562500 0.000000
0.218750 0.593750 0.000000
0.218750 0.625000 0.000000
0.218750 0.656250 0.000000
0.218750 0.687500 0.000000
0.218750 0.718750 0.000000
0.218750 0.750000 0.000000
0.218750 0.781250 0.000000
0.218750 0.812500 0.000000
0.218750 0.843750 0.000000
0.218750 0.875000 0.000000
0.218750 0.906250 0.000000
0.218750 0.937500 0.000000
0.218750 0.968750 0.000000
0.218750 1.000000 0.000000
0.250000 0.000000 0.000000
0.250000 0.031250 0.000000
0.250000 0.062500 0.000000
0.250000 0.093750 0.000000
0.250000 0.125000 0.000000
0.250000 0.156250 0.000000
0.250000 0.187500 0.000000
0.250000 0.218750 0.000000
0.250000 0.250000 0.000000
0.250000 0.281250 0.000000
0.250000 0.312500 0.000000
0.250000 0.343750 0.000000
0.250000 0.375000 0.000000
0.250000 0.406250 0.000000
0.250000 0.437500 0.000000
0.250000 0.468750 0.000000
0.250000 0.500000 0.000000
0.250000 0.531250 0.000000
0.250000 0.562500 0.000000
0.250000 0.593750 0.000000
0.250000 0.625000 0.000000
0.250000 0.656250 0.000000
0.250000 0.687500 0.000000
0.250000 0.718750 0.000000
0.250000 0.750000 0.000000
0.250000 0.781250 0.000000
0.250000 0.812500 0.000000
0.250000 0.843750 0.000000
0.250000 0.875000 0.000000
0.250000 0.906250 0.000000
0.250000 0.937500 0.000000
0.250000 0.968750 0.000000
0.250000 1.000000 0.000000
0.281250 0.000000 0.000000
0.281250 0.031250 0.000000
0.281250 0.062500 0.000000
0.281250 0.093750 0.000000
0.281250 0.125000 0.000000
0.281250 0.156250 0.000000
0.281250 0.187500 0.000000
0.281250 0.218750 0.000000
0.281250 0.250000 0.000000
0.281250 0.281250 0.000000
0.281250 0.312500 0.000000
0.281250 0.343750 0.000000
0.281250 0.375000 0.000000
0.281250 0.406250 0.000000
0.281250 0.437500 0.000000
0.281250 0.468750 0.000000
0.281250 0.500000 0.000000
0.281250 0.531250 0.000000
0.281250 0.562500 0.000000
0.281250 0.593750 0.000000
0.281250 0.625000 0.000000
0.281250 0.656250 0.000000
0.281250 0.687500 0.000000
0.281250 0.718750 0.000000
0.281250 0.750000 0.000000
0.281250 0.781250 0.000000
0.281250 0.812500 0.000000
0.281250 0.843750 0.000000
0.281250 0.875000 0.000000
0.281250 0.906250 0.000000
0.281250 0.937500 0.000000
0.281250 0.968750 0.000000
0.281250 1.000000 0.000000
0.312500 0.000000 0.000000
0.312500 0.031250 0.000000
0.312500 0.062500 0.000000
0.312500 0.093750 0.000000
0.312500 0.125000 0.000000
0.312500 0.156250 0.000000
0.312500 0.187500 0.000000
0.312500 0.218750 0.000000
0.312500 0.250000 0.000000
0.312500 0.281250 0.000000
0.312500 0.312500 0.000000
0.312500 0.343750 0.000000
0.312500 0.375000 0.000000
0.312500 0.406250 0.000000
0.312500 0.437500 0.000000
0.312500 0.468750 0.000000
0.312500 0.500000 0.000000
0.312500 0.531250 0.000000
0.312500 0.562500 0.000000
0.312500 0.593750 0.000000
0.312500 0.625000 0.000000
0.312500 0.656250 0.000000
0.312500 0.687500 0.000000
0.312500 0.718750 0.000000
0.312500 0.750000 0.000000
0.312500 0.781250 0.000000
0.312500 0.812500 0.000000
0.312500 0.843750 0.000000
0.312500 0.875000 0.000000
0.312500 0.906250 0.000000
0.312500 0.937500 0.000000
0.312500 0.968750 0.000000
0.312500 1.000000 0.000000
0.343750 0.000000 0.000000
0.343750 0.031250 0.000000
0.343750 0.062500 0.000000
[...]
POINT_DATA 1089
SCALARS phi FLOAT 1
LOOKUP_TABLE default
0.000000000000
0.000000953674
0.000015258789
0.000077247620
0.000244140625
0.000596046448
0.001235961914
0.002289772034
0.003906250000
0.006257057190
0.009536743164
0.013962745667
0.019775390625
0.027237892151
0.036636352539
0.048279762268
0.062500000000
0.079651832581
0.100112915039
0.124283790588
0.152587890625
0.185471534729
0.223403930664
0.266877174377
0.316406250000
0.372529029846
0.435806274414
0.506821632385
0.586181640625
0.674515724182
0.772476196289
0.880738258362
1.000000000000
0.000000953674
-0.783649227063
-0.568743046967
-0.339503032888
-0.164099904253
-0.062073659097
-0.015719785884
0.001358277487
0.007571935122
0.011662609908
0.016793841227
0.023997301178
0.033751536043
0.046472814522
0.062620609557
0.082709798517
0.107309015037
0.137039899182
0.172578805114
0.214661018114
0.264087828812
0.321737308363
0.388580251694
0.465703668755
0.554345697086
0.655948449069
0.772240317966
0.905369537569
1.058133761842
1.234407088602
1.440021183741
1.684830206881
0.994141578674
0.000015258789
-0.568743046967
-0.402561850057
-0.232929850673
-0.106653385672
-0.035516393059
-0.005011547578
0.004852556222
0.007667100566
0.009716888068
0.013175483774
0.018702663077
0.026608657142
0.037201854774
0.050854138245
0.068002352768
0.089143762844
0.114835355645
0.145697634773
0.182422968800
0.225789253057
0.276680504988
0.336117098230
0.405299908695
0.485675125212
0.579030637575
0.687642246245
0.814501449064
0.963682441553
1.140956680460
1.354860871097
1.618586442059
0.976577758789
0.000077247620
-0.339503032888
-0.232929850673
-0.128719189810
-0.053707505395
-0.013384705536
0.002220675283
0.005841909502
0.005931546371
0.006319133114
0.008291775174
0.012235624136
0.018360977260
0.026913017528
0.038206922294
0.052625220788
0.070613836875
0.092683011801
0.119413644192
0.151469493988
0.189616499765
0.234751470180
0.287943717755
0.350495057932
0.424026387737
0.510603411049
0.612921007828
0.734576837075
0.880482113017
1.057482299034
1.275286198775
1.547789536220
0.947342872620
0.000244140625
-0.164099904253
-0.106653385672
-0.053707505395
-0.017687852428
-0.000128766273
0.004891246491
0.004288412803
0.002542324018
0.001662427598
0.002332568029
0.004787592103
0.009198272422
0.015782792196
0.024824739325
0.036671468079
0.051733050024
0.070485803204
0.093481307585
0.121361897328
0.154884348701
0.194954471827
0.242676630626
0.299424036785
0.366938248337
0.447469997378
0.543978679703
0.660414838093
0.802118244762
0.976370527017
1.193135166769
1.465972762057
0.906494140625
0.000596046448
-0.062073659097
-0.035516393059
-0.013384705536
-0.000128766273
0.004511397263
0.003717436252
0.000823509802
-0.002053925007
-0.003942240083
-0.004467489478
-0.003448368886
-0.000715304353
0.003945065867
0.010801271350
0.020178724051
0.032462247523
0.048102331344
0.067626479451
0.091657127827
0.120938198555
0.156373232614
0.199079232294
0.250461941043
0.312320415381
0.386991507853
0.477548276686
0.588070004514
0.724004190375
0.892639424859
1.103696064914
1.370009446607
0.854111671448
0.001235961914
-0.015719785884
-0.005011547578
0.002220675283
0.004891246491
0.003717436252
0.000349773853
-0.003663742916
-0.007332843161
-0.010150593888
-0.011859736215
-0.012280647016
-0.011229622594
-0.008488945726
-0.003796785023
0.003157828839
0.012740506546
0.025379884259
0.041580561064
0.061942365392
0.087188195289
0.118203413391
0.156090782707
0.202246236446
0.258462409882
0.327068795718
0.411119441312
0.514640802066
0.642952652492
0.803071961622
1.004200798893
1.258283129736
0.790298461914
0.002289772034
0.001358277487
0.004852556222
0.005841909502
0.004288412803
0.000823509802
-0.003663742916
-0.008393441627
-0.012831144822
-0.016643990133
-0.019605822811
-0.021524657531
-0.022202890694
-0.021418020359
-0.018912600475
-0.014387201517
-0.007493149302
0.002177007946
0.015103054099
0.031856551153
0.053128433461
0.079767615900
0.112834304636
0.153672733672
0.204009274602
0.266083202571
0.342818657560
0.438047140206
0.556789602042
0.705605021052
0.893007735914
1.129949686874
0.715180397034
0.003906250000
0.007571935122
0.007667100566
0.005931546371
0.002542324018
-0.002053925007
-0.007332843161
-0.012831144822
-0.018192796546
-0.023150611795
-0.027487819646
-0.031004956295
-0.033497620678
-0.034742457058
-0.034487749616
-0.032445874341
-0.028285569377
-0.021622321057
-0.012005219392
0.001101518215
0.018344493937
0.040517193617
0.068609483248
0.103874668642
0.147919176371
0.202820876286
0.271282920742
0.356830497922
0.464057800930
0.598931582019
0.769156072495
0.984602978706
0.628906250000
0.006257057190
0.011662609908
0.009716888068
0.006319133114
0.001662427598
-0.003942240083
-0.010150593888
-0.016643990133
-0.023150611795
-0.029439955047
-0.035306541828
-0.040553035074
-0.044976490159
-0.048357993681
-0.050454697327
-0.050992947212
-0.049661167017
-0.046101134952
-0.039896210992
-0.030554883938
-0.017487701544
0.000024782548
0.022875960471
0.052192590471
0.089413986307
0.136396027283
0.195545728037
0.269992625242
0.363803500121
0.482246994862
0.632114831301
0.822107450188
0.531647682190
0.009536743164
0.016793841227
0.013175483774
0.008291775174
0.002332568029
-0.004467489478
-0.011859736215
-0.019605822811
-0.027487819646
-0.035306541828
-0.042873688547
-0.050002301495
-0.056497932227
-0.062151283347
-0.066732145307
-0.069983967379
-0.071618157826
-0.071307056455
-0.068674371970
-0.063281675052
-0.054609259030
-0.042029311871
-0.024768884523
-0.001859599709
0.027929559275
0.066180677696
0.114941485920
0.176871605901
0.255426552454
0.355086214583
0.481635549193
0.642507111694
0.423599243164
0.013962745667
0.023997301178
0.018702663077
0.012235624136
0.004787592103
-0.003448368886
-0.012280647016
-0.021524657531
-0.031004956295
-0.040553035074
-0.050002301495
-0.059182079046
-0.067911900667
-0.075996657399
-0.083222595442
-0.089353773903
-0.094128350965
-0.097253889813
-0.098400710041
-0.097192115393
-0.093190079792
-0.085874657262
-0.074614992531
-0.058629349691
-0.036931054117
-0.008256669758
0.029027880316
0.077048202478
0.138575031107
0.217217185436
0.317661885558
0.445972484555
0.304978370667
0.019775390625
0.033751536043
0.026608657142
0.018360977260
0.009198272422
-0.000715304353
-0.011229622594
-0.022202890694
-0.033497620678
-0.044976490159
-0.056497932227
-0.067911900667
-0.079056272125
-0.089754111029
-0.099811747494
-0.109017386564
-0.117139788405
-0.123926411032
-0.129100260730
-0.132354524769
-0.133343847512
-0.131670842071
-0.126866098190
-0.118359549972
-0.105440604345
-0.087203902403
-0.062476985562
-0.029725446716
0.013069684164
0.068568629685
0.140271365022
0.232767626489
0.176025390625
0.027237892151
0.046472814522
0.037201854774
0.026913017528
0.015782792196
0.003945065867
-0.008488945726
-0.021418020359
-0.034742457058
-0.048357993681
-0.062151283347
-0.075996657399
-0.089754111029
-0.103268452015
-0.116369471456
-0.128872893763
-0.140581764600
-0.151287838316
-0.160772418200
-0.168805968927
-0.175145647546
-0.179529676553
-0.181667201890
-0.181221934174
-0.177787457600
-0.170851601551
-0.159746693041
-0.143581821426
-0.121152409621
-0.090821333600
-0.050364474158
0.003228181389
0.037003517151
0.036636352539
0.062620609557
0.050854138245
0.038206922294
0.024824739325
0.010801271350
-0.003796785023
-0.018912600475
-0.034487749616
-0.050454697327
-0.066732145307
-0.083222595442
-0.099811747494
-0.116369471456
-0.132752136130
-0.148806074852
-0.164371946978
-0.179289714392
-0.193403891815
-0.206568639966
-0.218652142233
-0.229539529476
-0.239133385127
-0.247350566112
-0.254113706251
-0.259335318730
-0.262891870881
-0.264584549394
-0.264082638581
-0.260844456097
-0.254009572823
-0.242254520258
-0.111801147461
0.048279762268
0.082709798517
0.068002352768
0.052625220788
0.036671468079
0.020178724051
0.003157828839
-0.014387201517
-0.032445874341
-0.050992947212
-0.069983967379
-0.089353773903
-0.109017386564
-0.128872893763
-0.148806074852
-0.168696570787
-0.188425463288
-0.207884142150
-0.226984332012
-0.245669109224
-0.263924659479
-0.281792399308
-0.299380900258
-0.316876804281
-0.334553592935
-0.352776662214
-0.372002649612
-0.392770349640
-0.415679824410
-0.441355446770
-0.470387574562
-0.503246303292
-0.270079612732
0.062500000000
0.107309015037
0.089143762844
0.070613836875
0.051733050024
0.032462247523
0.012740506546
-0.007493149302
-0.028285569377
-0.049661167017
-0.071618157826
-0.094128350965
-0.117139788405
-0.140581764600
-0.164371946978
-0.188425463288
-0.212665931624
-0.237038486982
-0.261524904672
-0.286160933259
-0.311055921946
-0.336414751386
-0.362561942540
-0.389967614064
-0.419274673680
-0.451326253662
-0.487191929161
-0.528190689818
-0.575907973512
-0.632203321114
-0.699204370902
-0.779281961242
-0.437500000000
0.079651832581
0.137039899182
0.114835355645
0.092683011801
0.070485803204
0.048102331344
0.025379884259
0.002177007946
-0.021622321057
-0.046101134952
-0.071307056455
-0.097253889813
-0.123926411032
-0.151287838316
-0.179289714392
-0.207884142150
-0.237038486982
-0.266752796401
-0.297080291666
-0.328151355543
-0.360201469898
-0.393603537495
-0.428904941820
-0.466869542165
-0.508524554099
-0.555211916563
-0.608643293367
-0.670957308839
-0.744777000536
-0.833264824788
-0.940171912246
-1.069877655997
-0.613707542419
0.100112915039
0.172578805114
0.145697634773
0.119413644192
0.093481307585
0.067626479451
0.041580561064
0.015103054099
-0.012005219392
-0.039896210992
-0.068674371970
-0.098400710041
-0.129100260730
-0.160772418200
-0.193403891815
-0.226984332012
-0.261524904672
-0.297080291666
-0.333774760299
-0.371833076251
-0.411617128497
-0.453669180157
-0.498762640015
-0.547961144868
-0.602686531076
-0.664795937230
-0.736667814645
-0.821296047978
-0.922390757580
-1.044483755346
-1.193036162684
-1.374545455328
-0.798324584961
0.124283790588
0.214661018114
0.182422968800
0.151469493988
0.121361897328
0.091657127827
0.061942365392
0.031856551153
0.001101518215
-0.030554883938
-0.063281675052
-0.097192115393
-0.132354524769
-0.168805968927
-0.206568639966
-0.245669109224
-0.286160933259
-0.328151355543
-0.371833076251
-0.417522263591
-0.465704148509
-0.517087667925
-0.572670677790
-0.633817215862
-0.702348119497
-0.780645963701
-0.871774763705
-0.979614206515
-1.109007419255
-1.265920605878
-1.457612507518
-1.692811784224
-0.990950584412
0.152587890625
0.264087828812
0.225789253057
0.189616499765
0.154884348701
0.120938198555
0.087188195289
0.053128433461
0.018344493937
-0.017487701544
-0.054609259030
-0.093190079792
-0.133343847512
-0.175145647546
-0.218652142233
-0.263924659479
-0.311055921946
-0.360201469898
-0.411617128497
-0.465704148509
-0.523063906595
-0.584564272870
-0.651419909762
-0.725288812234
-0.808387276859
-0.903625133999
-1.014762446894
-1.146587978051
-1.305118648605
-1.497818218617
-1.733832903541
-2.024242104956
-1.191162109375
0.185471534729
0.321737308363
0.276680504988
0.234751470180
0.194954471827
0.156373232614
0.118203413391
0.079767615900
0.040517193617
0.000024782548
-0.042029311871
-0.085874657262
-0.131670842071
-0.179529676553
-0.229539529476
-0.281792399308
-0.336414751386
-0.393603537495
-0.453669180157
-0.517087667925
-0.584564272870
-0.657111751605
-0.736146188928
-0.823603824111
-0.922082171793
-1.035008398444
-1.166837129109
-1.323278577770
-1.511556198893
-1.740691286117
-2.021810791140
-2.368475112330
-1.398512840271
0.223403930664
0.388580251694
0.336117098230
0.287943717755
0.242676630626
0.199079232294
0.156090782707
0.112834304636
0.068609483248
0.022875960471
-0.024768884523
-0.074614992531
-0.126866098190
-0.181667201890
-0.239133385127
-0.299380900258
-0.362561942540
-0.428904941820
-0.498762640015
-0.572670677790
-0.651419909762
-0.736146188928
-0.828441863896
-0.930493632127
-1.045251552006
-1.176633743371
-1.329770366998
-1.511288656692
-1.729638032034
-1.995450995451
-2.321932669091
-2.725271387084
-1.612533569336
0.266877174377
0.465703668755
0.405299908695
0.350495057932
0.299424036785
0.250461941043
0.202246236446
0.153672733672
0.103874668642
0.052192590471
-0.001859599709
-0.058629349691
-0.118359549972
-0.181221934174
-0.247350566112
-0.316876804281
-0.389967614064
-0.466869542165
-0.547961144868
-0.633817215862
-0.725288812234
-0.823603824111
-0.930493632127
-1.048352148813
-1.180434062388
-1.331099098200
-1.506108160226
-1.712974803048
-1.961371192302
-2.263581618342
-2.634990029498
-3.094584288452
-1.832732200623
0.316406250000
0.554345697086
0.485675125212
0.424026387737
0.366938248337
0.312320415381
0.258462409882
0.204009274602
0.147919176371
0.089413986307
0.027929559275
-0.036931054117
-0.105440604345
-0.177787457600
-0.254113706251
-0.334553592935
-0.419274673680
-0.508524554099
-0.602686531076
-0.702348119497
-0.808387276859
-0.922082171793
-1.045251552006
-1.180434062388
-1.331116037342
-1.502017944623
-1.699449116830
-1.931737670014
-2.209736360843
-2.547394680119
-2.962373497696
-3.476665878937
-2.058593750000
0.372529029846
0.655948449069
0.579030637575
0.510603411049
0.447469997378
0.386991507853
0.327068795718
0.266083202571
0.202820876286
0.136396027283
0.066180677696
-0.008256669758
-0.087203902403
-0.170851601551
-0.259335318730
-0.352776662214
-0.451326253662
-0.555211916563
-0.664795937230
-0.780645963701
-0.903625133999
-1.035008398444
-1.176633743371
-1.331099098200
-1.502017944623
-1.694348612688
-1.914813040540
-2.172418746744
-2.479090323108
-2.850400658803
-3.306365293513
-3.872229935958
-2.289580345154
0.435806274414
0.772240317966
0.687642246245
0.612921007828
0.543978679703
0.477548276686
0.411119441312
0.342818657560
0.271282920742
0.195545728037
0.114941485920
0.029027880316
-0.062476985562
-0.159746693041
-0.262891870881
-0.372002649612
-0.487191929161
-0.608643293367
-0.736667814645
-0.871774763705
-1.014762446894
-1.166837129109
-1.329770366998
-1.506108160226
-1.699449116830
-1.914813040540
-2.159125082017
-2.441841696454
-2.775738741454
-3.177861582849
-3.670592052096
-4.282712238046
-2.525131225586
0.506821632385
0.905369537569
0.814501449064
0.734576837075
0.660414838093
0.588070004514
0.514640802066
0.438047140206
0.356830497922
0.269992625242
0.176871605901
0.077048202478
-0.029725446716
-0.143581821426
-0.264584549394
-0.392770349640
-0.528190689818
-0.670957308839
-0.821296047978
-0.979614206515
-1.146587978051
-1.323278577770
-1.511288656692
-1.712974803048
-1.931737670014
-2.172418746744
-2.441841696454
-2.749544724863
-3.108753223070
-3.537626065492
-4.060748932951
-4.710706388175
-2.764662742615
0.586181640625
1.058133761842
0.963682441553
0.880482113017
0.802118244762
0.724004190375
0.642952652492
0.556789602042
0.464057800930
0.363803500121
0.255426552454
0.138575031107
0.013069684164
-0.121152409621
-0.264082638581
-0.415679824410
-0.575907973512
-0.744777000536
-0.922390757580
-1.109007419255
-1.305118648605
-1.511556198893
-1.729638032034
-1.961371192302
-2.209736360843
-2.479090323108
-2.775738741454
-3.108753223070
-3.491130960069
-3.941408548873
-4.485801278685
-5.160740244115
-3.007568359375
0.674515724182
1.234407088602
1.140956680460
1.057482299034
0.976370527017
0.892639424859
0.803071961622
0.705605021052
0.598931582019
0.482246994862
0.355086214583
0.217217185436
0.068568629685
-0.090821333600
-0.260844456097
-0.441355446770
-0.632203321114
-0.833264824788
-1.044483755346
-1.265920605878
-1.497818218617
-1.740691286117
-1.995450995451
-2.263581618342
-2.547394680119
-2.850400658803
-3.177861582849
-3.537626065492
-3.941408548873
-4.406759971802
-4.960059264861
-5.640775349352
-3.253218650818
0.772476196289
1.440021183741
1.354860871097
1.275286198775
1.193135166769
1.103696064914
1.004200798893
0.893007735914
0.769156072495
0.632114831301
0.481635549193
0.317661885558
0.140271365022
-0.050364474158
-0.254009572823
-0.470387574562
-0.699204370902
-0.940171912246
-1.193036162684
-1.457612507518
-1.733832903541
-2.021810791140
-2.321932669091
-2.634990029498
-2.962373497696
-3.306365293513
-3.670592052096
-4.060748932951
-4.485801278685
-4.960059264861
-5.506887105100
-6.165413856185
-3.500961303711
0.880738258362
1.684830206881
1.618586442059
1.547789536220
1.465972762057
1.370009446607
1.258283129736
1.129949686874
0.984602978706
0.822107450188
0.642507111694
0.445972484555
0.232767626489
0.003228181389
-0.242254520258
-0.503246303292
-0.779281961242
-1.069877655997
-1.374545455328
-1.692811784224
-2.024242104956
-2.368475112330
-2.725271387084
-3.094584288452
-3.476665878937
-3.872229935958
-4.282712238046
-4.710706388175
-5.160740244115
-5.640775349352
-6.165413856185
-6.763646778605
-3.750121116638
1.000000000000
0.994141578674
0.976577758789
0.947342872620
0.906494140625
0.854111671448
0.790298461914
0.715180397034
0.628906250000
0.531647682190
0.423599243164
0.304978370667
0.176025390625
0.037003517151
-0.111801147461
-0.270079612732
-0.437500000000
-0.613707542419
-0.798324584961
-0.990950584412
-1.191162109375
-1.398512840271
-1.612533569336
-1.832732200623
-2.058593750000
-2.289580345154
-2.525131225586
-2.764662742615
-3.007568359375
-3.253218650818
-3.500961303711
-3.750121116638
-4.000000000000
