# vtk DataFile Version 2.0
TITLE = "Quad data"
ASCII
DATASET STRUCTURED_GRID
DIMENSIONS 33 33 1
POINTS 1089 FLOAT
0.000000 0.000000 0.000000
0.000000 0.031250 0.000000
0.000000 0.062500 0.000000
0.000000 0.093750 0.000000
0.000000 0.125000 0.000000
0.000000 0.156250 0.000000
0.000000 0.187500 0.000000
0.000000 0.218750 0.000000
0.000000 0.250000 0.000000
0.000000 0.281250 0.000000
0.000000 0.312500 0.000000
0.000000 0.343750 0.000000
0.000000 0.375000 0.000000
0.000000 0.406250 0.000000
0.000000 0.437500 0.000000
0.000000 0.468750 0.000000
0.000000 0.500000 0.000000
0.000000 0.531250 0.000000
0.000000 0.562500 0.000000
0.000000 0.593750 0.000000
0.000000 0.625000 0.000000
0.000000 0.656250 0.000000
0.000000 0.687500 0.000000
0.000000 0.718750 0.000000
0.000000 0.750000 0.000000
0.000000 0.781250 0.000000
0.000000 0.812500 0.000000
0.000000 0.843750 0.000000
0.000000 0.875000 0.000000
0.000000 0.906250 0.000000
0.000000 0.937500 0.000000
0.000000 0.968750 0.000000
0.000000 1.000000 0.000000
0.031250 0.000000 0.000000
0.031250 0.031250 0.000000
0.031250 0.062500 0.000000
0.031250 0.093750 0.000000
0.031250 0.125000 0.000000
0.031250 0.156250 0.000000
0.031250 0.187500 0.000000
0.031250 0.218750 0.000000
0.031250 0.250000 0.000000
0.031250 0.281250 0.000000
0.031250 0.312500 0.000000
0.031250 0.343750 0.000000
0.031250 0.375000 0.000000
0.031250 0.406250 0.000000
0.031250 0.437500 0.000000
0.031250 0.468750 0.000000
0.031250 0.500000 0.000000
0.031250 0.531250 0.000000
0.031250 0.562500 0.000000
0.031250 0.593750 0.000000
0.031250 0.625000 0.000000
0.031250 0.656250 0.000000
0.031250 0.687500 0.000000
0.031250 0.718750 0.000000
0.031250 0.750000 0.000000
0.031250 0.781250 0.000000
0.031250 0.812500 0.000000
0.031250 0.843750 0.000000
0.031250 0.875000 0.000000
0.031250 0.906250 0.000000
0.031250 0.937500 0.000000
0.031250 0.968750 0.000000
0.031250 1.000000 0.000000
0.062500 0.000000 0.000000
0.062500 0.031250 0.000000
0.062500 0.062500 0.000000
0.062500 0.093750 0.000000
0.062500 0.125000 0.000000
0.062500 0.156250 0.000000
0.062500 0.187500 0.000000
0.062500 0.218750 0.000000
0.062500 0.250000 0.000000
0.062500 0.281250 0.000000
0.062500 0.312500 0.000000
0.062500 0.343750 0.000000
0.062500 0.375000 0.000000
0.062500 0.406250 0.000000
0.062500 0.437500 0.000000
0.062500 0.468750 0.000000
0.062500 0.500000 0.000000
0.062500 0.531250 0.000000
0.062500 0.562500 0.000000
0.062500 0.593750 0.000000
0.062500 0.625000 0.000000
0.062500 0.656250 0.000000
0.062500 0.687500 0.000000
0.062500 0.718750 0.000000
0.062500 0.750000 0.000000
0.062500 0.781250 0.000000
0.062500 0.812500 0.000000
0.062500 0.843750 0.000000
0.062500 0.875000 0.000000
0.062500 0.906250 0.000000
0.062500 0.937500 0.000000
0.062500 0.968750 0.000000
0.062500 1.000000 0.000000
0.093750 0.000000 0.000000
0.093750 0.031250 0.000000
0.093750 0.062500 0.000000
0.093750 0.093750 0.000000
0.093750 0.125000 0.000000
0.093750 0.156250 0.000000
0.093750 0.187500 0.000000
0.093750 0.218750 0.000000
0.093750 0.250000 0.000000
0.093750 0.281250 0.000000
0.093750 0.312500 0.000000
0.093750 0.343750 0.000000
0.093750 0.375000 0.000000
0.093750 0.406250 0.000000
0.093750 0.437500 0.000000
0.093750 0.468750 0.000000
0.093750 0.500000 0.000000
0.093750 0.531250 0.000000
0.093750 0.562500 0.000000
0.093750 0.593750 0.000000
0.093750 0.625000 0.000000
0.093750 0.656250 0.000000
0.093750 0.687500 0.000000
0.093750 0.718750 0.000000
0.093750 0.750000 0.000000
0.093750 0.781250 0.000000
0.093750 0.812500 0.000000
0.093750 0.843750 0.000000
0.093750 0.875000 0.000000
0.093750 0.906250 0.000000
0.093750 0.937500 0.000000
0.093750 0.968750 0.000000
0.093750 1.000000 0.000000
0.125000 0.000000 0.000000
0.125000 0.031250 0.000000
0.125000 0.062500 0.000000
0.125000 0.093750 0.000000
0.125000 0.125000 0.000000
0.125000 0.156250 0.000000
0.125000 0.187500 0.000000
0.125000 0.218750 0.000000
0.125000 0.250000 0.000000
0.125000 0.281250 0.000000
0.125000 0.312500 0.000000
0.125000 0.343750 0.000000
0.125000 0.375000 0.000000
0.125000 0.406250 0.000000
0.125000 0.437500 0.000000
0.125000 0.468750 0.000000
0.125000 0.500000 0.000000
0.125000 0.531250 0.000000
0.125000 0.562500 0.000000
0.125000 0.593750 0.000000
0.125000 0.625000 0.000000
0.125000 0.656250 0.000000
0.125000 0.687500 0.000000
0.125000 0.718750 0.000000
0.125000 0.750000 0.000000
0.125000 0.781250 0.000000
0.125000 0.812500 0.000000
0.125000 0.843750 0.000000
0.125000 0.875000 0.000000
0.125000 0.906250 0.000000
0.125000 0.937500 0.000000
0.125000 0.968750 0.000000
0.125000 1.000000 0.000000
0.156250 0.000000 0.000000
0.156250 0.031250 0.000000
0.156250 0.062500 0.000000
0.156250 0.093750 0.000000
0.156250 0.125000 0.000000
0.156250 0.156250 0.000000
0.156250 0.187500 0.000000
0.156250 0.218750 0.000000
0.156250 0.250000 0.000000
0.156250 0.281250 0.000000
0.156250 0.312500 0.000000
0.156250 0.343750 0.000000
0.156250 0.375000 0.000000
0.156250 0.406250 0.000000
0.156250 0.437500 0.000000
0.156250 0.468750 0.000000
0.156250 0.500000 0.000000
0.156250 0.531250 0.000000
0.156250 0.562500 0.000000
0.156250 0.593750 0.000000
0.156250 0.625000 0.000000
0.156250 0.656250 0.000000
0.156250 0.687500 0.000000
0.156250 0.718750 0.000000
0.156250 0.750000 0.000000
0.156250 0.781250 0.000000
0.156250 0.812500 0.000000
0.156250 0.843750 0.000000
0.156250 0.875000 0.000000
0.156250 0.906250 0.000000
0.156250 0.937500 0.000000
0.156250 0.968750 0.000000
0.156250 1.000000 0.000000
0.187500 0.000000 0.000000
0.187500 0.031250 0.000000
0.187500 0.062500 0.000000
0.187500 0.093750 0.000000
0.187500 0.125000 0.000000
0.187500 0.156250 0.000000
0.187500 0.187500 0.000000
0.187500 0.218750 0.000000
0.187500 0.250000 0.000000
0.187500 0.281250 0.000000
0.187500 0.312500 0.000000
0.187500 0.343750 0.000000
0.187500 0.375000 0.000000
0.187500 0.406250 0.000000
0.187500 0.437500 0.000000
0.187500 0.468750 0.000000
0.187500 0.500000 0.000000
0.187500 0.531250 0.000000
0.187500 0.562500 0.000000
0.187500 0.593750 0.000000
0.187500 0.625000 0.000000
0.187500 0.656250 0.000000
0.187500 0.687500 0.000000
0.187500 0.718750 0.000000
0.187500 0.750000 0.000000
0.187500 0.781250 0.000000
0.187500 0.812500 0.000000
0.187500 0.843750 0.000000
0.187500 0.875000 0.000000
0.187500 0.906250 0.000000
0.187500 0.937500 0.000000
0.187500 0.968750 0.000000
0.187500 1.000000 0.000000
0.218750 0.000000 0.000000
0.218750 0.031250 0.000000
0.218750 0.062500 0.000000
0.218750 0.093750 0.000000
0.218750 0.125000 0.000000
0.218750 0.156250 0.000000
0.218750 0.187500 0.000000
0.218750 0.218750 0.000000
0.218750 0.250000 0.000000
0.218750 0.281250 0.000000
0.218750 0.312500 0.000000
0.218750 0.343750 0.000000
0.218750 0.375000 0.000000
0.218750 0.406250 0.000000
0.218750 0.437500 0.000000
0.218750 0.468750 0.000000
0.218750 0.500000 0.000000
0.218750 0.531250 0.000000
0.218750 0.562500 0.000000
0.218750 0.593750 0.000000
0.218750 0.625000 0.000000
0.218750 0.656250 0.000000
0.218750 0.687500 0.000000
0.218750 0.718750 0.000000
0.218750 0.750000 0.000000
0.218750 0.781250 0.000000
0.218750 0.812500 0.000000
0.218750 0.843750 0.000000
0.218750 0.875000 0.000000
0.218750 0.906250 0.000000
0.218750 0.937500 0.000000
0.218750 0.968750 0.000000
0.218750 1.000000 0.000000
0.250000 0.000000 0.000000
0.250000 0.031250 0.000000
0.250000 0.062500 0.000000
0.250000 0.093750 0.000000
0.250000 0.125000 0.000000
0.250000 0.156250 0.000000
0.250000 0.187500 0.000000
0.250000 0.218750 0.000000
0.250000 0.250000 0.000000
0.250000 0.281250 0.000000
0.250000 0.312500 0.000000
0.250000 0.343750 0.000000
0.250000 0.375000 0.000000
0.250000 0.406250 0.000000
0.250000 0.437500 0.000000
0.250000 0.468750 0.000000
0.250000 0.500000 0.000000
0.250000 0.531250 0.000000
0.250000 0.562500 0.000000
0.250000 0.593750 0.000000
0.250000 0.625000 0.000000
0.250000 0.656250 0.000000
0.250000 0.687500 0.000000
0.250000 0.718750 0.000000
0.250000 0.750000 0.000000
0.250000 0.781250 0.000000
0.250000 0.812500 0.000000
0.250000 0.843750 0.000000
0.250000 0.875000 0.000000
0.250000 0.906250 0.000000
0.250000 0.937500 0.000000
0.250000 0.968750 0.000000
0.250000 1.000000 0.000000
0.281250 0.000000 0.000000
0.281250 0.031250 0.000000
0.281250 0.062500 0.000000
0.281250 0.093750 0.000000
0.281250 0.125000 0.000000
0.281250 0.156250 0.000000
0.281250 0.187500 0.000000
0.281250 0.218750 0.000000
0.281250 0.250000 0.000000
0.281250 0.281250 0.000000
0.281250 0.312500 0.000000
0.281250 0.343750 0.000000
0.281250 0.375000 0.000000
0.281250 0.406250 0.000000
0.281250 0.437500 0.000000
0.281250 0.468750 0.000000
0.281250 0.500000 0.000000
0.281250 0.531250 0.000000
0.281250 0.562500 0.000000
0.281250 0.593750 0.000000
0.281250 0.625000 0.000000
0.281250 0.656250 0.000000
0.281250 0.687500 0.000000
0.281250 0.718750 0.000000
0.281250 0.750000 0.000000
0.281250 0.781250 0.000000
0.281250 0.812500 0.000000
0.281250 0.843750 0.000000
0.281250 0.875000 0.000000
0.281250 0.906250 0.000000
0.281250 0.937500 0.000000
0.281250 0.968750 0.000000
0.281250 1.000000 0.000000
0.312500 0.000000 0.000000
0.312500 0.031250 0.000000
0.312500 0.062500 0.000000
0.312500 0.093750 0.000000
0.312500 0.125000 0.000000
0.312500 0.156250 0.000000
0.312500 0.187500 0.000000
0.312500 0.218750 0.000000
0.312500 0.250000 0.000000
0.312500 0.281250 0.000000
0.312500 0.312500 0.000000
0.312500 0.343750 0.000000
0.312500 0.375000 0.000000
0.312500 0.406250 0.000000
0.312500 0.437500 0.000000
0.312500 0.468750 0.000000
0.312500 0.500000 0.000000
0.312500 0.531250 0.000000
0.312500 0.562500 0.000000
0.312500 0.593750 0.000000
0.312500 0.625000 0.000000
0.312500 0.656250 0.000000
0.312500 0.687500 0.000000
0.312500 0.718750 0.000000
0.312500 0.750000 0.000000
0.312500 0.781250 0.000000
0.312500 0.812500 0.000000
0.312500 0.843750 0.000000
0.312500 0.875000 0.000000
0.312500 0.906250 0.000000
0.312500 0.937500 0.000000
0.312500 0.968750 0.000000
0.312500 1.000000 0.000000
0.343750 0.000000 0.000000
0.343750 0.031250 0.000000
0.343750 0.062500 0.000000
[...]
POINT_DATA 1089
SCALARS phi FLOAT 1
LOOKUP_TABLE default
0.000000000000
0.000000953674
0.000015258789
0.000077247620
0.000244140625
0.000596046448
0.001235961914
0.002289772034
0.003906250000
0.006257057190
0.009536743164
0.013962745667
0.019775390625
0.027237892151
0.036636352539
0.048279762268
0.062500000000
0.079651832581
0.100112915039
0.124283790588
0.152587890625
0.185471534729
0.223403930664
0.266877174377
0.316406250000
0.372529029846
0.435806274414
0.506821632385
0.586181640625
0.674515724182
0.772476196289
0.880738258362
1.000000000000
0.000000953674
-0.000003814697
-0.000006675720
0.000026702881
0.000153541565
0.000453948975
0.001030921936
0.002010345459
0.003540992737
0.005794525146
0.008965492249
0.013271331787
0.018952369690
0.026271820068
0.035515785217
0.046993255615
0.061036109924
0.077999114990
0.098259925842
0.122219085693
0.150300025940
0.182949066162
0.220635414124
0.263851165771
0.313111305237
0.368953704834
0.431939125061
0.502651214600
0.581696510315
0.669704437256
0.767327308655
0.875240325928
0.994141578674
0.000015258789
-0.000006675720
-0.000061035156
-0.000113487244
-0.000106811523
0.000039100647
0.000427246094
0.001183509827
0.002456665039
0.004418373108
0.007263183594
0.011208534241
0.016494750977
0.023385047913
0.032165527344
0.043145179749
0.056655883789
0.073052406311
0.092712402344
0.116036415100
0.143447875977
0.175393104553
0.212341308594
0.254784584045
0.303237915039
0.358239173889
0.420349121094
0.490151405334
0.568252563477
0.655282020569
0.751892089844
0.858757972717
0.976577758789
0.000077247620
0.000026702881
-0.000113487244
-0.000308990479
-0.000502586365
-0.000614166260
-0.000540733337
-0.000156402588
0.000687599182
0.002162933350
0.004464149475
0.007808685303
0.012436866760
0.018611907959
0.026619911194
0.036769866943
0.049393653870
0.064846038818
0.083504676819
0.105770111084
0.132065773010
0.162837982178
0.198555946350
0.239711761475
0.286820411682
0.340419769287
0.401070594788
0.469356536865
0.545884132385
0.631282806396
0.726204872131
0.831325531006
0.947342872620
0.000244140625
0.000153541565
-0.000106811523
-0.000502586365
-0.000976562500
-0.001448631287
-0.001815795898
-0.001952171326
-0.001708984375
-0.000914573669
0.000625610352
0.003129005432
0.006835937500
0.012009620667
0.018936157227
0.027924537659
0.039306640625
0.053437232971
0.070693969727
0.091477394104
0.116210937500
0.145340919495
0.179336547852
0.218689918518
0.263916015625
0.315552711487
0.374160766602
0.440323829651
0.514648437500
0.597764015198
0.690322875977
0.793000221252
0.906494140625
0.000596046448
0.000453948975
0.000039100647
-0.000614166260
-0.001448631287
-0.002384185791
-0.003317832947
-0.004123687744
-0.004652976990
-0.004734039307
-0.004172325134
-0.002750396729
-0.000227928162
0.003658294678
0.009194374084
0.016689300537
0.026474952698
0.038906097412
0.054360389709
0.073238372803
0.095963478088
0.122982025146
0.154763221741
0.191799163818
0.234604835510
0.283718109131
0.339699745178
0.403133392334
0.474625587463
0.554805755615
0.644326210022
0.743862152100
0.854111671448
0.001235961914
0.001030921936
0.000427246094
-0.000540733337
-0.001815795898
-0.003317832947
-0.004943847656
-0.006567955017
-0.008041381836
-0.009192466736
-0.009826660156
-0.009726524353
-0.008651733398
-0.006339073181
-0.002502441406
0.003167152405
0.011001586914
0.021355628967
0.034606933594
0.051156044006
0.071426391602
0.095864295959
0.124938964844
0.159142494202
0.198989868164
0.245018959045
0.297790527344
0.357888221741
0.425918579102
0.502511024475
0.588317871094
0.684014320374
0.790298461914
0.002289772034
0.002010345459
0.001183509827
-0.000156402588
-0.001952171326
-0.004123687744
-0.006567955017
-0.009159088135
-0.011748313904
-0.014163970947
-0.016211509705
-0.017673492432
-0.018309593201
-0.017856597900
-0.016028404236
-0.012516021729
-0.006987571716
0.000911712646
0.011559486389
0.025356292725
0.042725563049
0.064113616943
0.089989662170
0.120845794678
0.157196998596
0.199581146240
0.248558998108
0.304714202881
0.368653297424
0.441005706787
0.522423744202
0.613582611084
0.715180397034
0.003906250000
0.003540992737
0.002456665039
0.000687599182
-0.001708984375
-0.004652976990
-0.008041381836
-0.011748313904
-0.015625000000
-0.019499778748
-0.023178100586
-0.026442527771
-0.029052734375
-0.030745506287
-0.031234741211
-0.030211448669
-0.027343750000
-0.022276878357
-0.014633178711
-0.004012107849
0.010009765625
0.027878761292
0.050064086914
0.077057838440
0.109375000000
0.147553443909
0.192153930664
0.243760108948
0.302978515625
0.370438575745
0.446792602539
0.532715797424
0.628906250000
0.006257057190
0.005794525146
0.004418373108
0.002162933350
-0.000914573669
-0.004734039307
-0.009192466736
-0.014163970947
-0.019499778748
-0.025028228760
-0.030554771423
-0.035861968994
-0.040709495544
-0.044834136963
-0.047949790955
-0.049747467041
-0.049895286560
-0.048038482666
-0.043799400330
-0.036777496338
-0.026549339294
-0.012668609619
0.005333900452
0.027950286865
0.055695533752
0.089107513428
0.128746986389
0.175197601318
0.229065895081
0.290981292725
0.361596107483
0.441585540771
0.531647682190
0.009536743164
0.008965492249
0.007263183594
0.004464149475
0.000625610352
-0.004172325134
-0.009826660156
-0.016211509705
-0.023178100586
-0.030554771423
-0.038146972656
-0.045737266541
-0.053085327148
-0.059927940369
-0.065979003906
-0.070929527283
-0.074447631836
-0.076178550720
-0.075744628906
-0.072745323181
-0.066757202148
-0.057333946228
-0.044006347656
-0.026282310486
-0.003646850586
0.024437904358
0.058532714844
0.099221229553
0.147109985352
0.202828407288
0.267028808594
0.340386390686
0.423599243164
0.013962745667
0.013271331787
0.011208534241
0.007808685303
0.003129005432
-0.002750396729
-0.009726524353
-0.017673492432
-0.026442527771
-0.035861968994
-0.045737266541
-0.055850982666
-0.065962791443
-0.075809478760
-0.085104942322
-0.093540191650
-0.100783348083
-0.106479644775
-0.110251426697
-0.111698150635
-0.110396385193
-0.105899810791
-0.097739219666
-0.085422515869
-0.068434715271
-0.046237945557
-0.018271446228
0.016048431396
0.057328224182
0.106197357178
0.163308143616
0.229335784912
0.304978370667
0.019775390625
0.018952369690
0.016494750977
0.012436866760
0.006835937500
-0.000227928162
-0.008651733398
-0.018309593201
-0.029052734375
-0.040709495544
-0.053085327148
-0.065962791443
-0.079101562500
-0.092238426208
-0.105087280273
-0.117339134216
-0.128662109375
-0.138701438904
-0.147079467773
-0.153395652771
-0.157226562500
-0.158125877380
-0.155624389648
-0.149230003357
-0.138427734375
-0.122679710388
-0.101425170898
-0.074080467224
-0.040039062500
0.001328468323
0.050674438477
0.108674049377
0.176025390625
0.027237892151
0.026271820068
0.023385047913
0.018611907959
0.012009620667
0.003658294678
-0.006339073181
-0.017856597900
-0.030745506287
-0.044834136963
-0.059927940369
-0.075809478760
-0.092238426208
-0.108951568604
-0.125662803650
-0.142063140869
-0.157820701599
-0.172580718994
-0.185965538025
-0.197574615479
-0.206984519958
-0.213748931885
-0.217398643494
-0.217441558838
-0.213362693787
-0.204624176025
-0.190665245056
-0.170902252197
-0.144728660583
-0.111515045166
-0.070609092712
-0.021335601807
0.037003517151
0.036636352539
0.035515785217
0.032165527344
0.026619911194
0.018936157227
0.009194374084
-0.002502441406
-0.016028404236
-0.031234741211
-0.047949790955
-0.065979003906
-0.085104942322
-0.105087280273
-0.125662803650
-0.146545410156
-0.167426109314
-0.187973022461
-0.207831382751
-0.226623535156
-0.243948936462
-0.259384155273
-0.272482872009
-0.282775878906
-0.289771080017
-0.292953491211
-0.291785240173
-0.285705566406
-0.274130821228
-0.256454467773
-0.232047080994
-0.200256347656
-0.160407066345
-0.111801147461
0.048279762268
0.046993255615
0.043145179749
0.036769866943
0.027924537659
0.016689300537
0.003167152405
-0.012516021729
-0.030211448669
-0.049747467041
-0.070929527283
-0.093540191650
-0.117339134216
-0.142063140869
-0.167426109314
-0.193119049072
-0.218810081482
-0.244144439697
-0.268744468689
-0.292209625244
-0.314116477966
-0.334018707275
-0.351447105408
-0.365909576416
-0.376891136169
-0.383853912354
-0.386237144470
-0.383457183838
-0.374907493591
-0.359958648682
-0.337958335876
-0.308231353760
-0.270079612732
0.062500000000
0.061036109924
0.056655883789
0.049393653870
0.039306640625
0.026474952698
0.011001586914
-0.006987571716
-0.027343750000
-0.049895286560
-0.074447631836
-0.100783348083
-0.128662109375
-0.157820701599
-0.187973022461
-0.218810081482
-0.250000000000
-0.281188011169
-0.311996459961
-0.342024803162
-0.370849609375
-0.398024559021
-0.423080444336
-0.445525169373
-0.464843750000
-0.480498313904
-0.491928100586
-0.498549461365
-0.499755859375
-0.494917869568
-0.483383178711
-0.464476585388
-0.437500000000
0.079651832581
0.077999114990
0.073052406311
0.064846038818
0.053437232971
0.038906097412
0.021355628967
0.000911712646
-0.022276878357
-0.048038482666
-0.076178550720
-0.106479644775
-0.138701438904
-0.172580718994
-0.207831382751
-0.244144439697
-0.281188011169
-0.318607330322
-0.356024742126
-0.393039703369
-0.429228782654
-0.464145660400
-0.497321128845
-0.528263092041
-0.556456565857
-0.581363677979
-0.602423667908
-0.619052886963
-0.630644798279
-0.636569976807
-0.636176109314
-0.628787994385
-0.613707542419
0.100112915039
0.098259925842
0.092712402344
0.083504676819
0.070693969727
0.054360389709
0.034606933594
0.011559486389
-0.014633178711
-0.043799400330
-0.075744628906
-0.110251426697
-0.147079467773
-0.185965538025
-0.226623535156
-0.268744468689
-0.311996459961
-0.356024742126
-0.400451660156
-0.444876670837
-0.488876342773
-0.532004356384
-0.573791503906
-0.613745689392
-0.651351928711
-0.686072349548
-0.717346191406
-0.744589805603
-0.767196655273
-0.784537315369
-0.795959472656
-0.800787925720
-0.798324584961
0.124283790588
0.122219085693
0.116036415100
0.105770111084
0.091477394104
0.073238372803
0.051156044006
0.025356292725
-0.004012107849
-0.036777496338
-0.072745323181
-0.111698150635
-0.153395652771
-0.197574615479
-0.243948936462
-0.292209625244
-0.342024803162
-0.393039703369
-0.444876670837
-0.497135162354
-0.549391746521
-0.601200103760
-0.652091026306
-0.701572418213
-0.749129295349
-0.794223785400
-0.836295127869
-0.874759674072
-0.909010887146
-0.938419342041
-0.962332725525
-0.980075836182
-0.990950584412
0.152587890625
0.150300025940
0.143447875977
0.132065773010
0.116210937500
0.095963478088
0.071426391602
0.042725563049
0.010009765625
-0.026549339294
-0.066757202148
-0.110396385193
-0.157226562500
-0.206984519958
-0.259384155273
-0.314116477966
-0.370849609375
-0.429228782654
-0.488876342773
-0.549391746521
-0.610351562500
-0.671309471130
-0.731796264648
-0.791319847107
-0.849365234375
-0.905394554138
-0.958847045898
-1.009139060974
-1.055664062500
-1.097792625427
-1.134872436523
-1.166228294373
-1.191162109375
0.185471534729
0.182949066162
0.175393104553
0.162837982178
0.145340919495
0.122982025146
0.095864295959
0.064113616943
0.027878761292
-0.012668609619
-0.057333946228
-0.105899810791
-0.158125877380
-0.213748931885
-0.272482872009
-0.334018707275
-0.398024559021
-0.464145660400
-0.532004356384
-0.601200103760
-0.671309471130
-0.741886138916
-0.812460899353
-0.882541656494
-0.951613426208
-1.019138336182
-1.084555625916
-1.147281646729
-1.206709861755
-1.262210845947
-1.313132286072
-1.358798980713
-1.398512840271
0.223403930664
0.220635414124
0.212341308594
0.198555946350
0.179336547852
0.154763221741
0.124938964844
0.089989662170
0.050064086914
0.005333900452
-0.044006347656
-0.097739219666
-0.155624389648
-0.217398643494
-0.282775878906
-0.351447105408
-0.423080444336
-0.497321128845
-0.573791503906
-0.652091026306
-0.731796264648
-0.812460899353
-0.893615722656
-0.974768638611
-1.055404663086
-1.134985923767
-1.212951660156
-1.288718223572
-1.361679077148
-1.431204795837
-1.496643066406
-1.557318687439
-1.612533569336
0.266877174377
0.263851165771
0.254784584045
0.239711761475
0.218689918518
0.191799163818
0.159142494202
0.120845794678
0.077057838440
0.027950286865
-0.026282310486
-0.085422515869
-0.149230003357
-0.217441558838
-0.289771080017
-0.365909576416
-0.445525169373
-0.528263092041
-0.613745689392
-0.701572418213
-0.791319847107
-0.882541656494
-0.974768638611
-1.067508697510
-1.160246849060
-1.252445220947
-1.343543052673
-1.432956695557
-1.520079612732
-1.604282379150
-1.684912681580
-1.761295318604
-1.832732200623
0.316406250000
0.313111305237
0.303237915039
0.286820411682
0.263916015625
0.234604835510
0.198989868164
0.157196998596
0.109375000000
0.055695533752
-0.003646850586
-0.068434715271
-0.138427734375
-0.213362693787
-0.292953491211
-0.376891136169
-0.464843750000
-0.556456565857
-0.651351928711
-0.749129295349
-0.849365234375
-0.951613426208
-1.055404663086
-1.160246849060
-1.265625000000
-1.371001243591
-1.475814819336
-1.579482078552
-1.681396484375
-1.780928611755
-1.877426147461
-1.970213890076
-2.058593750000
0.372529029846
0.368953704834
0.358239173889
0.340419769287
0.315552711487
0.283718109131
0.245018959045
0.199581146240
0.147553443909
0.089107513428
0.024437904358
-0.046237945557
-0.122679710388
-0.204624176025
-0.291785240173
-0.383853912354
-0.480498313904
-0.581363677979
-0.686072349548
-0.794223785400
-0.905394554138
-1.019138336182
-1.134985923767
-1.252445220947
-1.371001243591
-1.490116119385
-1.609229087830
-1.727756500244
-1.845091819763
-1.960605621338
-2.073645591736
-2.183536529541
-2.289580345154
0.435806274414
0.431939125061
0.420349121094
0.401070594788
0.374160766602
0.339699745178
0.297790527344
0.248558998108
0.192153930664
0.128746986389
0.058532714844
-0.018271446228
-0.101425170898
-0.190665245056
-0.285705566406
-0.386237144470
-0.491928100586
-0.602423667908
-0.717346191406
-0.836295127869
-0.958847045898
-1.084555625916
-1.212951660156
-1.343543052673
-1.475814819336
-1.609229087830
-1.743225097656
-1.877219200134
-2.010604858398
-2.142752647400
-2.273010253906
-2.400702476501
-2.525131225586
0.506821632385
0.502651214600
0.490151405334
0.469356536865
0.440323829651
0.403133392334
0.357888221741
0.304714202881
0.243760108948
0.175197601318
0.099221229553
0.016048431396
-0.074080467224
-0.170902252197
-0.274130821228
-0.383457183838
-0.498549461365
-0.619052886963
-0.744589805603
-0.874759674072
-1.009139060974
-1.147281646729
-1.288718223572
-1.432956695557
-1.579482078552
-1.727756500244
-1.877219200134
-2.027286529541
-2.177351951599
-2.326786041260
-2.474936485291
-2.621128082275
-2.764662742615
0.586181640625
0.581696510315
0.568252563477
0.545884132385
0.514648437500
0.474625587463
0.425918579102
0.368653297424
0.302978515625
0.229065895081
0.147109985352
0.057328224182
-0.040039062500
-0.144728660583
-0.256454467773
-0.374907493591
-0.499755859375
-0.630644798279
-0.767196655273
-0.909010887146
-1.055664062500
-1.206709861755
-1.361679077148
-1.520079612732
-1.681396484375
-1.845091819763
-2.010604858398
-2.177351951599
-2.344726562500
-2.512099266052
-2.678817749023
-2.844206809998
-3.007568359375
0.674515724182
0.669704437256
0.655282020569
0.631282806396
0.597764015198
0.554805755615
0.502511024475
0.441005706787
0.370438575745
0.290981292725
0.202828407288
0.106197357178
0.001328468323
-0.111515045166
-0.232047080994
-0.359958648682
-0.494917869568
-0.636569976807
-0.784537315369
-0.938419342041
-1.097792625427
-1.262210845947
-1.431204795837
-1.604282379150
-1.780928611755
-1.960605621338
-2.142752647400
-2.326786041260
-2.512099266052
-2.698062896729
-2.884024620056
-3.069309234619
-3.253218650818
0.772476196289
0.767327308655
0.751892089844
0.726204872131
0.690322875977
0.644326210022
0.588317871094
0.522423744202
0.446792602539
0.361596107483
0.267028808594
0.163308143616
0.050674438477
-0.070609092712
-0.200256347656
-0.337958335876
-0.483383178711
-0.636176109314
-0.795959472656
-0.962332725525
-1.134872436523
-1.313132286072
-1.496643066406
-1.684912681580
-1.877426147461
-2.073645591736
-2.273010253906
-2.474936485291
-2.678817749023
-2.884024620056
-3.089904785156
-3.295783042908
-3.500961303711
0.880738258362
0.875240325928
0.858757972717
0.831325531006
0.793000221252
0.743862152100
0.684014320374
0.613582611084
0.532715797424
0.441585540771
0.340386390686
0.229335784912
0.108674049377
-0.021335601807
-0.160407066345
-0.308231353760
-0.464476585388
-0.628787994385
-0.800787925720
-0.980075836182
-1.166228294373
-1.358798980713
-1.557318687439
-1.761295318604
-1.970213890076
-2.183536529541
-2.400702476501
-2.621128082275
-2.844206809998
-3.069309234619
-3.295783042908
-3.522953033447
-3.750121116638
1.000000000000
0.994141578674
0.976577758789
0.947342872620
0.906494140625
0.854111671448
0.790298461914
0.715180397034
0.628906250000
0.531647682190
0.423599243164
0.304978370667
0.176025390625
0.037003517151
-0.111801147461
-0.270079612732
-0.437500000000
-0.613707542419
-0.798324584961
-0.990950584412
-1.191162109375
-1.398512840271
-1.612533569336
-1.832732200623
-2.058593750000
-2.289580345154
-2.525131225586
-2.764662742615
-3.007568359375
-3.253218650818
-3.500961303711
-3.750121116638
-4.000000000000
