# vtk DataFile Version 2.0
TITLE = "Quad data"
ASCII
DATASET STRUCTURED_GRID
DIMENSIONS 33 33 1
POINTS 1089 FLOAT
0.000000 0.000000 0.000000
0.000000 0.031250 0.000000
0.000000 0.062500 0.000000
0.000000 0.093750 0.000000
0.000000 0.125000 0.000000
0.000000 0.156250 0.000000
0.000000 0.187500 0.000000
0.000000 0.218750 0.000000
0.000000 0.250000 0.000000
0.000000 0.281250 0.000000
0.000000 0.312500 0.000000
0.000000 0.343750 0.000000
0.000000 0.375000 0.000000
0.000000 0.406250 0.000000
0.000000 0.437500 0.000000
0.000000 0.468750 0.000000
0.000000 0.500000 0.000000
0.000000 0.531250 0.000000
0.000000 0.562500 0.000000
0.000000 0.593750 0.000000
0.000000 0.625000 0.000000
0.000000 0.656250 0.000000
0.000000 0.687500 0.000000
0.000000 0.718750 0.000000
0.000000 0.750000 0.000000
0.000000 0.781250 0.000000
0.000000 0.812500 0.000000
0.000000 0.843750 0.000000
0.000000 0.875000 0.000000
0.000000 0.906250 0.000000
0.000000 0.937500 0.000000
0.000000 0.968750 0.000000
0.000000 1.000000 0.000000
0.031250 0.000000 0.000000
0.031250 0.031250 0.000000
0.031250 0.062500 0.000000
0.031250 0.093750 0.000000
0.031250 0.125000 0.000000
0.031250 0.156250 0.000000
0.031250 0.187500 0.000000
0.031250 0.218750 0.000000
0.031250 0.250000 0.000000
0.031250 0.281250 0.000000
0.031250 0.312500 0.000000
0.031250 0.343750 0.000000
0.031250 0.375000 0.000000
0.031250 0.406250 0.000000
0.031250 0.437500 0.000000
0.031250 0.468750 0.000000
0.031250 0.500000 0.000000
0.031250 0.531250 0.000000
0.031250 0.562500 0.000000
0.031250 0.593750 0.000000
0.031250 0.625000 0.000000
0.031250 0.656250 0.000000
0.031250 0.687500 0.000000
0.031250 0.718750 0.000000
0.031250 0.750000 0.000000
0.031250 0.781250 0.000000
0.031250 0.812500 0.000000
0.031250 0.843750 0.000000
0.031250 0.875000 0.000000
0.031250 0.906250 0.000000
0.031250 0.937500 0.000000
0.031250 0.968750 0.000000
0.031250 1.000000 0.000000
0.062500 0.000000 0.000000
0.062500 0.031250 0.000000
0.062500 0.062500 0.000000
0.062500 0.093750 0.000000
0.062500 0.125000 0.000000
0.062500 0.156250 0.000000
0.062500 0.187500 0.000000
0.062500 0.218750 0.000000
0.062500 0.250000 0.000000
0.062500 0.281250 0.000000
0.062500 0.312500 0.000000
0.062500 0.343750 0.000000
0.062500 0.375000 0.000000
0.062500 0.406250 0.000000
0.062500 0.437500 0.000000
0.062500 0.468750 0.000000
0.062500 0.500000 0.000000
0.062500 0.531250 0.000000
0.062500 0.562500 0.000000
0.062500 0.593750 0.000000
0.062500 0.625000 0.000000
0.062500 0.656250 0.000000
0.062500 0.687500 0.000000
0.062500 0.718750 0.000000
0.062500 0.750000 0.000000
0.062500 0.781250 0.000000
0.062500 0.812500 0.000000
0.062500 0.843750 0.000000
0.062500 0.875000 0.000000
0.062500 0.906250 0.000000
0.062500 0.937500 0.000000
0.062500 0.968750 0.000000
0.062500 1.000000 0.000000
0.093750 0.000000 0.000000
0.093750 0.031250 0.000000
0.093750 0.062500 0.000000
0.093750 0.093750 0.000000
0.093750 0.125000 0.000000
0.093750 0.156250 0.000000
0.093750 0.187500 0.000000
0.093750 0.218750 0.000000
0.093750 0.250000 0.000000
0.093750 0.281250 0.000000
0.093750 0.312500 0.000000
0.093750 0.343750 0.000000
0.093750 0.375000 0.000000
0.093750 0.406250 0.000000
0.093750 0.437500 0.000000
0.093750 0.468750 0.000000
0.093750 0.500000 0.000000
0.093750 0.531250 0.000000
0.093750 0.562500 0.000000
0.093750 0.593750 0.000000
0.093750 0.625000 0.000000
0.093750 0.656250 0.000000
0.093750 0.687500 0.000000
0.093750 0.718750 0.000000
0.093750 0.750000 0.000000
0.093750 0.781250 0.000000
0.093750 0.812500 0.000000
0.093750 0.843750 0.000000
0.093750 0.875000 0.000000
0.093750 0.906250 0.000000
0.093750 0.937500 0.000000
0.093750 0.968750 0.000000
0.093750 1.000000 0.000000
0.125000 0.000000 0.000000
0.125000 0.031250 0.000000
0.125000 0.062500 0.000000
0.125000 0.093750 0.000000
0.125000 0.125000 0.000000
0.125000 0.156250 0.000000
0.125000 0.187500 0.000000
0.125000 0.218750 0.000000
0.125000 0.250000 0.000000
0.125000 0.281250 0.000000
0.125000 0.312500 0.000000
0.125000 0.343750 0.000000
0.125000 0.375000 0.000000
0.125000 0.406250 0.000000
0.125000 0.437500 0.000000
0.125000 0.468750 0.000000
0.125000 0.500000 0.000000
0.125000 0.531250 0.000000
0.125000 0.562500 0.000000
0.125000 0.593750 0.000000
0.125000 0.625000 0.000000
0.125000 0.656250 0.000000
0.125000 0.687500 0.000000
0.125000 0.718750 0.000000
0.125000 0.750000 0.000000
0.125000 0.781250 0.000000
0.125000 0.812500 0.000000
0.125000 0.843750 0.000000
0.125000 0.875000 0.000000
0.125000 0.906250 0.000000
0.125000 0.937500 0.000000
0.125000 0.968750 0.000000
0.125000 1.000000 0.000000
0.156250 0.000000 0.000000
0.156250 0.031250 0.000000
0.156250 0.062500 0.000000
0.156250 0.093750 0.000000
0.156250 0.125000 0.000000
0.156250 0.156250 0.000000
0.156250 0.187500 0.000000
0.156250 0.218750 0.000000
0.156250 0.250000 0.000000
0.156250 0.281250 0.000000
0.156250 0.312500 0.000000
0.156250 0.343750 0.000000
0.156250 0.375000 0.000000
0.156250 0.406250 0.000000
0.156250 0.437500 0.000000
0.156250 0.468750 0.000000
0.156250 0.500000 0.000000
0.156250 0.531250 0.000000
0.156250 0.562500 0.000000
0.156250 0.593750 0.000000
0.156250 0.625000 0.000000
0.156250 0.656250 0.000000
0.156250 0.687500 0.000000
0.156250 0.718750 0.000000
0.156250 0.750000 0.000000
0.156250 0.781250 0.000000
0.156250 0.812500 0.000000
0.156250 0.843750 0.000000
0.156250 0.875000 0.000000
0.156250 0.906250 0.000000
0.156250 0.937500 0.000000
0.156250 0.968750 0.000000
0.156250 1.000000 0.000000
0.187500 0.000000 0.000000
0.187500 0.031250 0.000000
0.187500 0.062500 0.000000
0.187500 0.093750 0.000000
0.187500 0.125000 0.000000
0.187500 0.156250 0.000000
0.187500 0.187500 0.000000
0.187500 0.218750 0.000000
0.187500 0.250000 0.000000
0.187500 0.281250 0.000000
0.187500 0.312500 0.000000
0.187500 0.343750 0.000000
0.187500 0.375000 0.000000
0.187500 0.406250 0.000000
0.187500 0.437500 0.000000
0.187500 0.468750 0.000000
0.187500 0.500000 0.000000
0.187500 0.531250 0.000000
0.187500 0.562500 0.000000
0.187500 0.593750 0.000000
0.187500 0.625000 0.000000
0.187500 0.656250 0.000000
0.187500 0.687500 0.000000
0.187500 0.718750 0.000000
0.187500 0.750000 0.000000
0.187500 0.781250 0.000000
0.187500 0.812500 0.000000
0.187500 0.843750 0.000000
0.187500 0.875000 0.000000
0.187500 0.906250 0.000000
0.187500 0.937500 0.000000
0.187500 0.968750 0.000000
0.187500 1.000000 0.000000
0.218750 0.000000 0.000000
0.218750 0.031250 0.000000
0.218750 0.062500 0.000000
0.218750 0.093750 0.000000
0.218750 0.125000 0.000000
0.218750 0.156250 0.000000
0.218750 0.187500 0.000000
0.218750 0.218750 0.000000
0.218750 0.250000 0.000000
0.218750 0.281250 0.000000
0.218750 0.312500 0.000000
0.218750 0.343750 0.000000
0.218750 0.375000 0.000000
0.218750 0.406250 0.000000
0.218750 0.437500 0.000000
0.218750 0.468750 0.000000
0.218750 0.500000 0.000000
0.218750 0.531250 0.000000
0.218750 0.562500 0.000000
0.218750 0.593750 0.000000
0.218750 0.625000 0.000000
0.218750 0.656250 0.000000
0.218750 0.687500 0.000000
0.218750 0.718750 0.000000
0.218750 0.750000 0.000000
0.218750 0.781250 0.000000
0.218750 0.812500 0.000000
0.218750 0.843750 0.000000
0.218750 0.875000 0.000000
0.218750 0.906250 0.000000
0.218750 0.937500 0.000000
0.218750 0.968750 0.000000
0.218750 1.000000 0.000000
0.250000 0.000000 0.000000
0.250000 0.031250 0.000000
0.250000 0.062500 0.000000
0.250000 0.093750 0.000000
0.250000 0.125000 0.000000
0.250000 0.156250 0.000000
0.250000 0.187500 0.000000
0.250000 0.218750 0.000000
0.250000 0.250000 0.000000
0.250000 0.281250 0.000000
0.250000 0.312500 0.000000
0.250000 0.343750 0.000000
0.250000 0.375000 0.000000
0.250000 0.406250 0.000000
0.250000 0.437500 0.000000
0.250000 0.468750 0.000000
0.250000 0.500000 0.000000
0.250000 0.531250 0.000000
0.250000 0.562500 0.000000
0.250000 0.593750 0.000000
0.250000 0.625000 0.000000
0.250000 0.656250 0.000000
0.250000 0.687500 0.000000
0.250000 0.718750 0.000000
0.250000 0.750000 0.000000
0.250000 0.781250 0.000000
0.250000 0.812500 0.000000
0.250000 0.843750 0.000000
0.250000 0.875000 0.000000
0.250000 0.906250 0.000000
0.250000 0.937500 0.000000
0.250000 0.968750 0.000000
0.250000 1.000000 0.000000
0.281250 0.000000 0.000000
0.281250 0.031250 0.000000
0.281250 0.062500 0.000000
0.281250 0.093750 0.000000
0.281250 0.125000 0.000000
0.281250 0.156250 0.000000
0.281250 0.187500 0.000000
0.281250 0.218750 0.000000
0.281250 0.250000 0.000000
0.281250 0.281250 0.000000
0.281250 0.312500 0.000000
0.281250 0.343750 0.000000
0.281250 0.375000 0.000000
0.281250 0.406250 0.000000
0.281250 0.437500 0.000000
0.281250 0.468750 0.000000
0.281250 0.500000 0.000000
0.281250 0.531250 0.000000
0.281250 0.562500 0.000000
0.281250 0.593750 0.000000
0.281250 0.625000 0.000000
0.281250 0.656250 0.000000
0.281250 0.687500 0.000000
0.281250 0.718750 0.000000
0.281250 0.750000 0.000000
0.281250 0.781250 0.000000
0.281250 0.812500 0.000000
0.281250 0.843750 0.000000
0.281250 0.875000 0.000000
0.281250 0.906250 0.000000
0.281250 0.937500 0.000000
0.281250 0.968750 0.000000
0.281250 1.000000 0.000000
0.312500 0.000000 0.000000
0.312500 0.031250 0.000000
0.312500 0.062500 0.000000
0.312500 0.093750 0.000000
0.312500 0.125000 0.000000
0.312500 0.156250 0.000000
0.312500 0.187500 0.000000
0.312500 0.218750 0.000000
0.312500 0.250000 0.000000
0.312500 0.281250 0.000000
0.312500 0.312500 0.000000
0.312500 0.343750 0.000000
0.312500 0.375000 0.000000
0.312500 0.406250 0.000000
0.312500 0.437500 0.000000
0.312500 0.468750 0.000000
0.312500 0.500000 0.000000
0.312500 0.531250 0.000000
0.312500 0.562500 0.000000
0.312500 0.593750 0.000000
0.312500 0.625000 0.000000
0.312500 0.656250 0.000000
0.312500 0.687500 0.000000
0.312500 0.718750 0.000000
0.312500 0.750000 0.000000
0.312500 0.781250 0.000000
0.312500 0.812500 0.000000
0.312500 0.843750 0.000000
0.312500 0.875000 0.000000
0.312500 0.906250 0.000000
0.312500 0.937500 0.000000
0.312500 0.968750 0.000000
0.312500 1.000000 0.000000
0.343750 0.000000 0.000000
0.343750 0.031250 0.000000
0.343750 0.062500 0.000000
[...]
POINT_DATA 1089
SCALARS phi FLOAT 1
LOOKUP_TABLE default
0.000000000000
0.000000953674
0.000015258789
0.000077247620
0.000244140625
0.000596046448
0.001235961914
0.002289772034
0.003906250000
0.006257057190
0.009536743164
0.013962745667
0.019775390625
0.027237892151
0.036636352539
0.048279762268
0.062500000000
0.079651832581
0.100112915039
0.124283790588
0.152587890625
0.185471534729
0.223403930664
0.266877174377
0.316406250000
0.372529029846
0.435806274414
0.506821632385
0.586181640625
0.674515724182
0.772476196289
0.880738258362
1.000000000000
0.000000953674
-0.687066793048
-0.462970943283
-0.257677410462
-0.111938628939
-0.033293745223
-0.001659151772
0.007386298771
0.009525400546
0.011481260710
0.015245113751
0.021237061424
0.029618189868
0.040623312499
0.054587113496
0.071918073505
0.093077410737
0.118567218145
0.148924720752
0.184720928703
0.226563913651
0.275108883573
0.331079764011
0.395310993957
0.468825146196
0.552974514602
0.649698714296
0.761998770422
0.894834152218
1.056904127375
1.264458095144
1.550331853705
0.994141578674
0.000015258789
-0.462970943283
-0.280155281962
-0.134059038307
-0.040977344652
0.002339097440
0.014407421730
0.013706462947
0.010933401381
0.009996400149
0.011570462038
0.015473663131
0.021553094497
0.029844094920
0.040530045089
0.053887614358
0.070251110286
0.089992636232
0.113512339816
0.141236295370
0.173622851623
0.211181683318
0.254514357622
0.304392417830
0.361901111354
0.428698089093
0.507474600412
0.602777728410
0.722488604477
0.880520338370
1.101829115451
1.431795101209
0.976577758789
0.000077247620
-0.257677410462
-0.134059038307
-0.045803600934
0.003457754850
0.020916112804
0.020658815471
0.014810223045
0.009727234753
0.007310253979
0.007525463560
0.009960426746
0.014357660203
0.020673916682
0.029019882266
0.039600912409
0.052678420494
0.068547466630
0.087525398112
0.109949742442
0.136187186159
0.166659665063
0.201899462786
0.242654393216
0.290079157401
0.346074003285
0.413873967362
0.499063150175
0.611307583463
0.767292318737
0.995625864660
1.344750043198
0.947342872620
0.000244140625
-0.111938628939
-0.040977344652
0.003457754850
0.023239549121
0.025489250383
0.019423023432
0.011980370089
0.006428461025
0.003490487871
0.002885737526
0.004218978147
0.007266682524
0.011990726682
0.018485266548
0.026927281498
0.037542699056
0.050585486297
0.066326665424
0.085052819006
0.107077031277
0.132769632442
0.162622567328
0.197371226920
0.238213473695
0.287190882369
0.347837156621
0.426260556118
0.532919348859
0.685475992385
0.913260321714
1.263958454776
0.906494140625
0.000596046448
-0.033293745223
0.002339097440
0.020916112804
0.025489250383
0.021392882038
0.014033297221
0.007019496979
0.001876391751
-0.001179202787
-0.002400699944
-0.002050806897
-0.000256797115
0.002990855899
0.007802361504
0.014353418741
0.022859061882
0.033556264834
0.046694456102
0.062534881638
0.081362678226
0.103519816463
0.129473563485
0.159945118310
0.196138526423
0.240133633001
0.295542351552
0.368579217054
0.469768691332
0.616602378970
0.837557452437
1.177963312157
0.854111671448
0.001235961914
-0.001659151772
0.014407421730
0.020658815471
0.019423023432
0.014033297221
0.007439432054
0.001458103744
-0.003182915107
-0.006393449638
-0.008299040153
-0.009011751658
-0.008554386946
-0.006857964876
-0.003782068464
0.000862569024
0.007295351071
0.015752290002
0.026478357577
0.039727620182
0.055775552268
0.074951910987
0.097708726789
0.124747418657
0.157243359549
0.197227529459
0.248215859860
0.316220398195
0.411334865521
0.550160936799
0.759427726224
1.081251601619
0.790298461914
0.002289772034
0.007386298771
0.013706462947
0.014810223045
0.011980370089
0.007019496979
0.001458103744
-0.003769510307
-0.008260512354
-0.011916623847
-0.014741805742
-0.016727843643
-0.017811359462
-0.017868873393
-0.016726890033
-0.014175741290
-0.009982565830
-0.003901504365
0.004320333800
0.014943490020
0.028247849385
0.044563491680
0.064334425241
0.088237533133
0.117391925992
0.153712731808
0.200490264491
0.263312866587
0.351501877107
0.480292257030
0.674074828077
0.971121566895
0.715180397034
0.003906250000
0.009525400546
0.010933401381
0.009727234753
0.006428461025
0.001876391751
-0.003182915107
-0.008260512354
-0.013101969745
-0.017589065398
-0.021647428705
-0.025189674876
-0.028090831602
-0.030183729442
-0.031264136143
-0.031099493317
-0.029438016108
-0.026016344325
-0.020564170790
-0.012803495346
-0.002438320305
0.010872551624
0.027571939320
0.048309835512
0.074129275721
0.106780102395
0.149231504497
0.206486583645
0.286846190411
0.403828059031
0.579025452814
0.846295155971
0.628906250000
0.006257057190
0.011481260710
0.009996400149
0.007310253979
0.003490487871
-0.001179202787
-0.006393449638
-0.011916623847
-0.017589065398
-0.023293522745
-0.028917662088
-0.034328459399
-0.039360254755
-0.043812742212
-0.047454621785
-0.050029748868
-0.051263776286
-0.050869949799
-0.048552741492
-0.044007312672
-0.036911250356
-0.026902349942
-0.013531977558
0.003822919458
0.026115691481
0.054894259391
0.092734192395
0.143928863381
0.215563370011
0.319151392427
0.473085813345
0.706252617210
0.531647682190
0.009536743164
0.015245113751
0.011570462038
0.007525463560
0.002885737526
-0.002400699944
-0.008299040153
-0.014741805742
-0.021647428705
-0.028917662088
-0.036428598008
-0.044023655546
-0.051511077924
-0.058665387813
-0.065231306216
-0.070928750000
-0.075457910597
-0.078503665261
-0.079738473110
-0.078822320450
-0.075397039810
-0.069070185697
-0.059380227767
-0.045729567475
-0.027264028663
-0.002665975828
0.030188307786
0.074779732086
0.136811460165
0.225538815651
0.355777962222
0.550894901701
0.423599243164
0.013962745667
0.021237061424
0.015473663131
0.009960426746
0.004218978147
-0.002050806897
-0.009011751658
-0.016727843643
-0.025189674876
-0.034328459399
-0.044023655546
-0.054108199957
-0.064373338278
-0.074573566431
-0.084431523816
-0.093642545248
-0.101878660612
-0.108791891164
-0.114016568822
-0.117169971138
-0.117849672625
-0.115624453613
-0.110013072056
-0.100441245310
-0.086161180479
-0.066109069455
-0.038662952063
-0.001244646887
0.050317141386
0.122782960021
0.227031173586
0.380366144166
0.304978370667
0.019775390625
0.029618189868
0.021553094497
0.014357660203
0.007266682524
-0.000256797115
-0.008554386946
-0.017811359462
-0.028090831602
-0.039360254755
-0.051511077924
-0.064373338278
-0.077726622782
-0.091308323589
-0.104819761255
-0.117930612415
-0.130282064984
-0.141489129525
-0.151142468172
-0.158809873936
-0.164037034831
-0.166346293786
-0.165230536116
-0.160136764167
-0.150429870652
-0.135320918701
-0.113734931196
-0.084079468521
-0.043855298804
0.010978327234
0.087012483602
0.194958739191
0.176025390625
0.027237892151
0.040623312499
0.029844094920
0.020673916682
0.011990726682
0.002990855899
-0.006857964876
-0.017868873393
-0.030183729442
-0.043812742212
-0.058665387813
-0.074573566431
-0.091308323589
-0.108591402739
-0.126102749036
-0.143484981430
-0.160345817530
-0.176259455110
-0.190767953807
-0.203383679343
-0.213593811116
-0.220867679916
-0.224667150519
-0.224459171959
-0.219727655593
-0.209978525371
-0.194726422244
-0.173443144906
-0.145435063226
-0.109597452383
-0.063965151142
-0.004937220711
0.037003517151
0.036636352539
0.054587113496
0.040530045089
0.029019882266
0.018485266548
0.007802361504
-0.003782068464
-0.016726890033
-0.031264136143
-0.047454621785
-0.065231306216
-0.084431523816
-0.104819761255
-0.126102749036
-0.147938548600
-0.169941212972
-0.191682558776
-0.212692646706
-0.232460742883
-0.250438830703
-0.266050156376
-0.278705797554
-0.287832789993
-0.292917832179
-0.293570843042
-0.289612401819
-0.281187932536
-0.268908775693
-0.254015078970
-0.238546366092
-0.225490730343
-0.218860031014
-0.111801147461
0.048279762268
0.071918073505
0.053887614358
0.039600912409
0.026927281498
0.014353418741
0.000862569024
-0.014175741290
-0.031099493317
-0.050029748868
-0.070928750000
-0.093642545248
-0.117930612415
-0.143484981430
-0.169941212972
-0.196883427548
-0.223845512991
-0.250310738412
-0.275712325544
-0.299438125117
-0.320843466730
-0.339277545172
-0.354130418526
-0.364909853629
-0.371359864454
-0.373635801633
-0.372554140546
-0.369938433396
-0.369085806649
-0.375380199770
-0.397078165470
-0.446288840942
-0.270079612732
0.062500000000
0.093077410737
0.070251110286
0.052678420494
0.037542699056
0.022859061882
0.007295351071
-0.009982565830
-0.029438016108
-0.051263776286
-0.075457910597
-0.101878660612
-0.130282064984
-0.160345817530
-0.191682558776
-0.223845512991
-0.256329254977
-0.288568517284
-0.319938418988
-0.349760405911
-0.377319646939
-0.401901758372
-0.422859675561
-0.439725425892
-0.452386662225
-0.461354280918
-0.468155457291
-0.475896142437
-0.490048584423
-0.519532775548
-0.578175737468
-0.686648831067
-0.437500000000
0.079651832581
0.118567218145
0.089992636232
0.068547466630
0.050585486297
0.033556264834
0.015752290002
-0.003901504365
-0.026016344325
-0.050869949799
-0.078503665261
-0.108791891164
-0.141489129525
-0.176259455110
-0.212692646706
-0.250310738412
-0.288568517284
-0.326851621211
-0.364476499402
-0.400697723987
-0.434730151199
-0.465796431776
-0.493214619386
-0.516546435750
-0.535834495288
-0.551966908440
-0.567220678253
-0.586051761195
-0.616220245295
-0.670364562286
-0.768169839336
-0.939313314970
-0.613707542419
0.100112915039
0.148924720752
0.113512339816
0.087525398112
0.066326665424
0.046694456102
0.026478357577
0.004320333800
-0.020564170790
-0.048552741492
-0.079738473110
-0.114016568822
-0.151142468172
-0.190767953807
-0.232460742883
-0.275712325544
-0.319938418988
-0.364476499402
-0.408585602881
-0.451455128157
-0.492231955023
-0.530079104925
-0.564284787028
-0.594448460998
-0.620781081011
-0.644570660757
-0.668882556035
-0.699587414461
-0.746839827830
-0.827168866901
-0.966389766147
-1.203606359391
-0.798324584961
0.124283790588
0.184720928703
0.141236295370
0.109949742442
0.085052819006
0.062534881638
0.039727620182
0.014943490020
-0.012803495346
-0.044007312672
-0.078822320450
-0.117169971138
-0.158809873936
-0.203383679343
-0.250438830703
-0.299438125117
-0.349760405911
-0.400697723987
-0.451455128157
-0.501161092831
-0.548899753528
-0.593780978253
-0.635071352559
-0.672419029532
-0.706218879339
-0.738182431189
-0.772200910291
-0.815620678887
-0.881090398845
-0.989190546560
-1.172121502480
-1.478810118359
-0.990950584412
0.152587890625
0.226563913651
0.173622851623
0.136187186159
0.107077031277
0.081362678226
0.055775552268
0.028247849385
-0.002438320305
-0.036911250356
-0.075397039810
-0.117849672625
-0.164037034831
-0.213593811116
-0.266050156376
-0.320843466730
-0.377319646939
-0.434730151199
-0.492231955023
-0.548899753528
-0.603763427325
-0.655889648572
-0.704535047467
-0.749410433652
-0.791112181052
-0.831799281443
-0.876224263400
-0.933265014093
-1.018154867491
-1.155673184521
-1.384642140997
-1.764183038162
-1.191162109375
0.185471534729
0.275108883573
0.211181683318
0.166659665063
0.132769632442
0.103519816463
0.074951910987
0.044563491680
0.010872551624
-0.026902349942
-0.069070185697
-0.115624453613
-0.166346293786
-0.220867679916
-0.278705797554
-0.339277545172
-0.401901758372
-0.465796431776
-0.530079104925
-0.593780978253
-0.655889648572
-0.715442180409
-0.771700339584
-0.824454218059
-0.874520437422
-0.924528168781
-0.980122188145
-1.051759311845
-1.157335590061
-1.325960253513
-1.603293783570
-2.058998992226
-1.398512840271
0.223403930664
0.331079764011
0.254514357622
0.201899462786
0.162622567328
0.129473563485
0.097708726789
0.064334425241
0.027571939320
-0.013531977558
-0.059380227767
-0.110013072056
-0.165230536116
-0.224667150519
-0.287832789993
-0.354130418526
-0.422859675561
-0.493214619386
-0.564284787028
-0.635071352559
-0.704535047467
-0.771700339584
-0.835852100168
-0.896877863421
-0.955832351665
-1.015833065266
-1.083438579691
-1.170717233786
-1.298286103461
-1.499692495100
-1.827628651894
-2.362624476797
-1.612533569336
0.266877174377
0.395310993957
0.304392417830
0.242654393216
0.197371226920
0.159945118310
0.124747418657
0.088237533133
0.048309835512
0.003822919458
-0.045729567475
-0.100441245310
-0.160136764167
-0.224459171959
-0.292917832179
-0.364909853629
-0.439725425892
-0.516546435750
-0.594448460998
-0.672419029532
-0.749410433652
-0.824454218059
-0.896877863421
-0.966683691002
-1.035177533116
-1.105972515115
-1.186543890230
-1.290576890889
-1.441433775306
-1.677172107562
-2.057679654168
-2.674663630958
-1.832732200623
0.316406250000
0.468825146196
0.361901111354
0.290079157401
0.238213473695
0.196138526423
0.157243359549
0.117391925992
0.074129275721
0.026115691481
-0.027264028663
-0.086161180479
-0.150429870652
-0.219727655593
-0.293570843042
-0.371359864454
-0.452386662225
-0.535834495288
-0.620781081011
-0.706218879339
-0.791112181052
-0.874520437422
-0.955832351665
-1.035177533116
-1.114114402058
-1.196737369806
-1.291406124016
-1.413377858741
-1.588721458981
-1.860012288275
-2.294450280160
-2.995223738764
-2.058593750000
0.372529029846
0.552974514602
0.428698089093
0.346074003285
0.287190882369
0.240133633001
0.197227529459
0.153712731808
0.106780102395
0.054894259391
-0.002665975828
-0.066109069455
-0.135320918701
-0.209978525371
-0.289612401819
-0.373635801633
-0.461354280918
-0.551966908440
-0.644570660757
-0.738182431189
-0.831799281443
-0.924528168781
-1.015833065266
-1.105972515115
-1.196737369806
-1.292650470862
-1.402861399173
-1.544063241558
-1.744875283274
-2.052272057851
-2.540788721383
-3.325396671597
-2.289580345154
0.435806274414
0.649698714296
0.507474600412
0.413873967362
0.347837156621
0.295542351552
0.248215859860
0.200490264491
0.149231504497
0.092734192395
0.030188307786
-0.038662952063
-0.113734931196
-0.194726422244
-0.281187932536
-0.372554140546
-0.468155457291
-0.567220678253
-0.668882556035
-0.772200910291
-0.876224263400
-0.980122188145
-1.083438579691
-1.186543890230
-1.291406124016
-1.402861399173
-1.530651135614
-1.692609405492
-1.919530805888
-2.262415164299
-2.802941797877
-3.668135451235
-2.525131225586
0.506821632385
0.761998770422
0.602777728410
0.499063150175
0.426260556118
0.368579217054
0.316220398195
0.263312866587
0.206486583645
0.143928863381
0.074779732086
-0.001244646887
-0.084079468521
-0.173443144906
-0.268908775693
-0.369938433396
-0.475896142437
-0.586051761195
-0.699587414461
-0.815620678887
-0.933265014093
-1.051759311845
-1.170717233786
-1.290576890889
-1.413377858741
-1.544063241558
-1.692609405492
-1.877435445528
-2.130743074224
-2.506669171040
-3.093332328575
-4.029879064723
-2.764662742615
0.586181640625
0.894834152218
0.722488604477
0.611307583463
0.532919348859
0.469768691332
0.411334865521
0.351501877107
0.286846190411
0.215563370011
0.136811460165
0.050317141386
-0.043855298804
-0.145435063226
-0.254015078970
-0.369085806649
-0.490048584423
-0.616220245295
-0.746839827830
-0.881090398845
-1.018154867491
-1.157335590061
-1.298286103461
-1.441433775306
-1.588721458981
-1.744875283274
-1.919530805888
-2.130743074224
-2.410690719266
-2.814761573988
-3.435589580086
-4.423668785774
-3.007568359375
0.674515724182
1.056904127375
0.880520338370
0.767292318737
0.685475992385
0.616602378970
0.550160936799
0.480292257030
0.403828059031
0.319151392427
0.225538815651
0.122782960021
0.010978327234
-0.109597452383
-0.238546366092
-0.375380199770
-0.519532775548
-0.670364562286
-0.827168866901
-0.989190546560
-1.155673184521
-1.325960253513
-1.499692495100
-1.677172107562
-1.860012288275
-2.052272057851
-2.262415164299
-2.506669171040
-2.814761573988
-3.239657083671
-3.873837169110
-4.875458627173
-3.253218650818
0.772476196289
1.264458095144
1.101829115451
0.995625864660
0.913260321714
0.837557452437
0.759427726224
0.674074828077
0.579025452814
0.473085813345
0.355777962222
0.227031173586
0.087012483602
-0.063965151142
-0.225490730343
-0.397078165470
-0.578175737468
-0.768169839336
-0.966389766147
-1.172121502480
-1.384642140997
-1.603293783570
-1.827628651894
-2.057679654168
-2.294450280160
-2.540788721383
-2.802941797877
-3.093332328575
-3.435589580086
-3.873837169110
-4.490188027381
-5.437940776737
-3.500961303711
0.880738258362
1.550331853705
1.431795101209
1.344750043198
1.263958454776
1.177963312157
1.081251601619
0.971121566895
0.846295155971
0.706252617210
0.550894901701
0.380366144166
0.194958739191
-0.004937220711
-0.218860031014
-0.446288840942
-0.686648831067
-0.939313314970
-1.203606359391
-1.478810118359
-1.764183038162
-2.058998992226
-2.362624476797
-2.674663630958
-2.995223738764
-3.325396671597
-3.668135451235
-4.029879064723
-4.423668785774
-4.875458627173
-5.437940776737
-6.224175003640
-3.750121116638
1.000000000000
0.994141578674
0.976577758789
0.947342872620
0.906494140625
0.854111671448
0.790298461914
0.715180397034
0.628906250000
0.531647682190
0.423599243164
0.304978370667
0.176025390625
0.037003517151
-0.111801147461
-0.270079612732
-0.437500000000
-0.613707542419
-0.798324584961
-0.990950584412
-1.191162109375
-1.398512840271
-1.612533569336
-1.832732200623
-2.058593750000
-2.289580345154
-2.525131225586
-2.764662742615
-3.007568359375
-3.253218650818
-3.500961303711
-3.750121116638
-4.000000000000
