# vtk DataFile Version 2.0
TITLE = "Quad data"
ASCII
DATASET STRUCTURED_GRID
DIMENSIONS 65 65 1
POINTS 4225 FLOAT
0.000000 0.000000 0.000000
0.000000 0.015625 0.000000
0.000000 0.031250 0.000000
0.000000 0.046875 0.000000
0.000000 0.062500 0.000000
0.000000 0.078125 0.000000
0.000000 0.093750 0.000000
0.000000 0.109375 0.000000
0.000000 0.125000 0.000000
0.000000 0.140625 0.000000
0.000000 0.156250 0.000000
0.000000 0.171875 0.000000
0.000000 0.187500 0.000000
0.000000 0.203125 0.000000
0.000000 0.218750 0.000000
0.000000 0.234375 0.000000
0.000000 0.250000 0.000000
0.000000 0.265625 0.000000
0.000000 0.281250 0.000000
0.000000 0.296875 0.000000
0.000000 0.312500 0.000000
0.000000 0.328125 0.000000
0.000000 0.343750 0.000000
0.000000 0.359375 0.000000
0.000000 0.375000 0.000000
0.000000 0.390625 0.000000
0.000000 0.406250 0.000000
0.000000 0.421875 0.000000
0.000000 0.437500 0.000000
0.000000 0.453125 0.000000
0.000000 0.468750 0.000000
0.000000 0.484375 0.000000
0.000000 0.500000 0.000000
0.000000 0.515625 0.000000
0.000000 0.531250 0.000000
0.000000 0.546875 0.000000
0.000000 0.562500 0.000000
0.000000 0.578125 0.000000
0.000000 0.593750 0.000000
0.000000 0.609375 0.000000
0.000000 0.625000 0.000000
0.000000 0.640625 0.000000
0.000000 0.656250 0.000000
0.000000 0.671875 0.000000
0.000000 0.687500 0.000000
0.000000 0.703125 0.000000
0.000000 0.718750 0.000000
0.000000 0.734375 0.000000
0.000000 0.750000 0.000000
0.000000 0.765625 0.000000
0.000000 0.781250 0.000000
0.000000 0.796875 0.000000
0.000000 0.812500 0.000000
0.000000 0.828125 0.000000
0.000000 0.843750 0.000000
0.000000 0.859375 0.000000
0.000000 0.875000 0.000000
0.000000 0.890625 0.000000
0.000000 0.906250 0.000000
0.000000 0.921875 0.000000
0.000000 0.937500 0.000000
0.000000 0.953125 0.000000
0.000000 0.968750 0.000000
0.000000 0.984375 0.000000
0.000000 1.000000 0.000000
0.015625 0.000000 0.000000
0.015625 0.015625 0.000000
0.015625 0.031250 0.000000
0.015625 0.046875 0.000000
0.015625 0.062500 0.000000
0.015625 0.078125 0.000000
0.015625 0.093750 0.000000
0.015625 0.109375 0.000000
0.015625 0.125000 0.000000
0.015625 0.140625 0.000000
0.015625 0.156250 0.000000
0.015625 0.171875 0.000000
0.015625 0.187500 0.000000
0.015625 0.203125 0.000000
0.015625 0.218750 0.000000
0.015625 0.234375 0.000000
0.015625 0.250000 0.000000
0.015625 0.265625 0.000000
0.015625 0.281250 0.000000
0.015625 0.296875 0.000000
0.015625 0.312500 0.000000
0.015625 0.328125 0.000000
0.015625 0.343750 0.000000
0.015625 0.359375 0.000000
0.015625 0.375000 0.000000
0.015625 0.390625 0.000000
0.015625 0.406250 0.000000
0.015625 0.421875 0.000000
0.015625 0.437500 0.000000
0.015625 0.453125 0.000000
0.015625 0.468750 0.000000
0.015625 0.484375 0.000000
0.015625 0.500000 0.000000
0.015625 0.515625 0.000000
0.015625 0.531250 0.000000
0.015625 0.546875 0.000000
0.015625 0.562500 0.000000
0.015625 0.578125 0.000000
0.015625 0.593750 0.000000
0.015625 0.609375 0.000000
0.015625 0.625000 0.000000
0.015625 0.640625 0.000000
0.015625 0.656250 0.000000
0.015625 0.671875 0.000000
0.015625 0.687500 0.000000
0.015625 0.703125 0.000000
0.015625 0.718750 0.000000
0.015625 0.734375 0.000000
0.015625 0.750000 0.000000
0.015625 0.765625 0.000000
0.015625 0.781250 0.000000
0.015625 0.796875 0.000000
0.015625 0.812500 0.000000
0.015625 0.828125 0.000000
0.015625 0.843750 0.000000
0.015625 0.859375 0.000000
0.015625 0.875000 0.000000
0.015625 0.890625 0.000000
0.015625 0.906250 0.000000
0.015625 0.921875 0.000000
0.015625 0.937500 0.000000
0.015625 0.953125 0.000000
0.015625 0.968750 0.000000
0.015625 0.984375 0.000000
0.015625 1.000000 0.000000
0.031250 0.000000 0.000000
0.031250 0.015625 0.000000
0.031250 0.031250 0.000000
0.031250 0.046875 0.000000
0.031250 0.062500 0.000000
0.031250 0.078125 0.000000
0.031250 0.093750 0.000000
0.031250 0.109375 0.000000
0.031250 0.125000 0.000000
0.031250 0.140625 0.000000
0.031250 0.156250 0.000000
0.031250 0.171875 0.000000
0.031250 0.187500 0.000000
0.031250 0.203125 0.000000
0.031250 0.218750 0.000000
0.031250 0.234375 0.000000
0.031250 0.250000 0.000000
0.031250 0.265625 0.000000
0.031250 0.281250 0.000000
0.031250 0.296875 0.000000
0.031250 0.312500 0.000000
0.031250 0.328125 0.000000
0.031250 0.343750 0.000000
0.031250 0.359375 0.000000
0.031250 0.375000 0.000000
0.031250 0.390625 0.000000
0.031250 0.406250 0.000000
0.031250 0.421875 0.000000
0.031250 0.437500 0.000000
0.031250 0.453125 0.000000
0.031250 0.468750 0.000000
0.031250 0.484375 0.000000
0.031250 0.500000 0.000000
0.031250 0.515625 0.000000
0.031250 0.531250 0.000000
0.031250 0.546875 0.000000
0.031250 0.562500 0.000000
0.031250 0.578125 0.000000
0.031250 0.593750 0.000000
0.031250 0.609375 0.000000
0.031250 0.625000 0.000000
0.031250 0.640625 0.000000
0.031250 0.656250 0.000000
0.031250 0.671875 0.000000
0.031250 0.687500 0.000000
0.031250 0.703125 0.000000
0.031250 0.718750 0.000000
0.031250 0.734375 0.000000
0.031250 0.750000 0.000000
0.031250 0.765625 0.000000
0.031250 0.781250 0.000000
0.031250 0.796875 0.000000
0.031250 0.812500 0.000000
0.031250 0.828125 0.000000
0.031250 0.843750 0.000000
0.031250 0.859375 0.000000
0.031250 0.875000 0.000000
0.031250 0.890625 0.000000
0.031250 0.906250 0.000000
0.031250 0.921875 0.000000
0.031250 0.937500 0.000000
0.031250 0.953125 0.000000
0.031250 0.968750 0.000000
0.031250 0.984375 0.000000
0.031250 1.000000 0.000000
0.046875 0.000000 0.000000
0.046875 0.015625 0.000000
0.046875 0.031250 0.000000
0.046875 0.046875 0.000000
0.046875 0.062500 0.000000
0.046875 0.078125 0.000000
0.046875 0.093750 0.000000
0.046875 0.109375 0.000000
0.046875 0.125000 0.000000
0.046875 0.140625 0.000000
0.046875 0.156250 0.000000
0.046875 0.171875 0.000000
0.046875 0.187500 0.000000
0.046875 0.203125 0.000000
0.046875 0.218750 0.000000
0.046875 0.234375 0.000000
0.046875 0.250000 0.000000
0.046875 0.265625 0.000000
0.046875 0.281250 0.000000
0.046875 0.296875 0.000000
0.046875 0.312500 0.000000
0.046875 0.328125 0.000000
0.046875 0.343750 0.000000
0.046875 0.359375 0.000000
0.046875 0.375000 0.000000
0.046875 0.390625 0.000000
0.046875 0.406250 0.000000
0.046875 0.421875 0.000000
0.046875 0.437500 0.000000
0.046875 0.453125 0.000000
0.046875 0.468750 0.000000
0.046875 0.484375 0.000000
0.046875 0.500000 0.000000
0.046875 0.515625 0.000000
0.046875 0.531250 0.000000
0.046875 0.546875 0.000000
0.046875 0.562500 0.000000
0.046875 0.578125 0.000000
0.046875 0.593750 0.000000
0.046875 0.609375 0.000000
0.046875 0.625000 0.000000
0.046875 0.640625 0.000000
0.046875 0.656250 0.000000
0.046875 0.671875 0.000000
0.046875 0.687500 0.000000
0.046875 0.703125 0.000000
0.046875 0.718750 0.000000
0.046875 0.734375 0.000000
0.046875 0.750000 0.000000
0.046875 0.765625 0.000000
0.046875 0.781250 0.000000
0.046875 0.796875 0.000000
0.046875 0.812500 0.000000
0.046875 0.828125 0.000000
0.046875 0.843750 0.000000
0.046875 0.859375 0.000000
0.046875 0.875000 0.000000
0.046875 0.890625 0.000000
0.046875 0.906250 0.000000
0.046875 0.921875 0.000000
0.046875 0.937500 0.000000
0.046875 0.953125 0.000000
0.046875 0.968750 0.000000
0.046875 0.984375 0.000000
0.046875 1.000000 0.000000
0.062500 0.000000 0.000000
0.062500 0.015625 0.000000
0.062500 0.031250 0.000000
0.062500 0.046875 0.000000
0.062500 0.062500 0.000000
0.062500 0.078125 0.000000
0.062500 0.093750 0.000000
0.062500 0.109375 0.000000
0.062500 0.125000 0.000000
0.062500 0.140625 0.000000
0.062500 0.156250 0.000000
0.062500 0.171875 0.000000
0.062500 0.187500 0.000000
0.062500 0.203125 0.000000
0.062500 0.218750 0.000000
0.062500 0.234375 0.000000
0.062500 0.250000 0.000000
0.062500 0.265625 0.000000
0.062500 0.281250 0.000000
0.062500 0.296875 0.000000
0.062500 0.312500 0.000000
0.062500 0.328125 0.000000
0.062500 0.343750 0.000000
0.062500 0.359375 0.000000
0.062500 0.375000 0.000000
0.062500 0.390625 0.000000
0.062500 0.406250 0.000000
0.062500 0.421875 0.000000
0.062500 0.437500 0.000000
0.062500 0.453125 0.000000
0.062500 0.468750 0.000000
0.062500 0.484375 0.000000
0.062500 0.500000 0.000000
0.062500 0.515625 0.000000
0.062500 0.531250 0.000000
0.062500 0.546875 0.000000
0.062500 0.562500 0.000000
0.062500 0.578125 0.000000
0.062500 0.593750 0.000000
0.062500 0.609375 0.000000
0.062500 0.625000 0.000000
0.062500 0.640625 0.000000
0.062500 0.656250 0.000000
0.062500 0.671875 0.000000
0.062500 0.687500 0.000000
0.062500 0.703125 0.000000
0.062500 0.718750 0.000000
0.062500 0.734375 0.000000
0.062500 0.750000 0.000000
0.062500 0.765625 0.000000
0.062500 0.781250 0.000000
0.062500 0.796875 0.000000
0.062500 0.812500 0.000000
0.062500 0.828125 0.000000
0.062500 0.843750 0.000000
0.062500 0.859375 0.000000
0.062500 0.875000 0.000000
0.062500 0.890625 0.000000
0.062500 0.906250 0.000000
0.062500 0.921875 0.000000
0.062500 0.937500 0.000000
0.062500 0.953125 0.000000
0.062500 0.968750 0.000000
0.062500 0.984375 0.000000
0.062500 1.000000 0.000000
0.078125 0.000000 0.000000
0.078125 0.015625 0.000000
0.078125 0.031250 0.000000
0.078125 0.046875 0.000000
0.078125 0.062500 0.000000
0.078125 0.078125 0.000000
0.078125 0.093750 0.000000
0.078125 0.109375 0.000000
0.078125 0.125000 0.000000
0.078125 0.140625 0.000000
0.078125 0.156250 0.000000
0.078125 0.171875 0.000000
0.078125 0.187500 0.000000
0.078125 0.203125 0.000000
0.078125 0.218750 0.000000
0.078125 0.234375 0.000000
0.078125 0.250000 0.000000
0.078125 0.265625 0.000000
0.078125 0.281250 0.000000
0.078125 0.296875 0.000000
0.078125 0.312500 0.000000
0.078125 0.328125 0.000000
0.078125 0.343750 0.000000
0.078125 0.359375 0.000000
0.078125 0.375000 0.000000
0.078125 0.390625 0.000000
0.078125 0.406250 0.000000
0.078125 0.421875 0.000000
0.078125 0.437500 0.000000
0.078125 0.453125 0.000000
0.078125 0.468750 0.000000
0.078125 0.484375 0.000000
0.078125 0.500000 0.000000
0.078125 0.515625 0.000000
0.078125 0.531250 0.000000
0.078125 0.546875 0.000000
0.078125 0.562500 0.000000
0.078125 0.578125 0.000000
0.078125 0.593750 0.000000
0.078125 0.609375 0.000000
0.078125 0.625000 0.000000
[...]
POINT_DATA 4225
SCALARS phi FLOAT 1
LOOKUP_TABLE default
0.000000000000
0.000000059605
0.000000953674
0.000004827976
0.000015258789
0.000037252903
0.000077247620
0.000143110752
0.000244140625
0.000391066074
0.000596046448
0.000872671604
0.001235961914
0.001702368259
0.002289772034
0.003017485142
0.003906250000
0.004978239536
0.006257057190
0.007767736912
0.009536743164
0.011591970921
0.013962745667
0.016679823399
0.019775390625
0.023283064365
0.027237892151
0.031676352024
0.036636352539
0.042157232761
0.048279762268
0.055046141148
0.062500000000
0.070686399937
0.079651832581
0.089444220066
0.100112915039
0.111708700657
0.124283790588
0.137891829014
0.152587890625
0.168428480625
0.185471534729
0.203776419163
0.223403930664
0.244416296482
0.266877174377
0.290851652622
0.316406250000
0.343608915806
0.372529029846
0.403237402439
0.435806274414
0.470309317112
0.506821632385
0.545419752598
0.586181640625
0.629186689854
0.674515724182
0.722250998020
0.772476196289
0.825276434422
0.880738258362
0.938949644566
1.000000000000
0.000000059605
-0.934398464917
-0.858865273601
-0.754339368933
-0.631748643534
-0.503893136289
-0.382425542731
-0.275883102184
-0.188892868512
-0.122416736740
-0.074678022571
-0.042337659520
-0.021562274159
-0.008781247442
-0.001087495752
0.003654709909
0.006886599383
0.009513282957
0.012071204831
0.014866939608
0.018076116182
0.021806283270
0.026133166115
0.031119814168
0.036825889322
0.043311790570
0.050640306545
0.058877187958
0.068091295786
0.078354607353
0.089742190433
0.102332183471
0.116205792896
0.131447309616
0.148144144667
0.166386884141
0.186269364239
0.207888768207
0.231345747894
0.256744573646
0.284193317466
0.313804075728
0.345693239423
0.379981822054
0.416795858071
0.456266888286
0.498532553597
0.543737324821
0.592033405519
0.643581857426
0.698554016462
0.757133294395
0.819517502193
0.885921895088
0.956583242480
1.031765398749
1.111767154076
1.196933703970
1.287674174030
1.384489949645
1.488023852848
1.599153497848
1.719189041683
1.850348884800
0.998535215855
0.000000953674
-0.858865273601
-0.782556870941
-0.682455274436
-0.567890440225
-0.449985171610
-0.338941470437
-0.242213751134
-0.163758244604
-0.104243875933
-0.061892229795
-0.033546843019
-0.015642261618
-0.004887059367
0.001379572237
0.005098420806
0.007567990306
0.009594614640
0.011648795320
0.013993689986
0.016776029700
0.020083431979
0.023977101565
0.028508822325
0.033728979774
0.039689949698
0.046447318169
0.054060194058
0.062591197904
0.072106370648
0.082675091582
0.094370032327
0.107267151494
0.121445728806
0.136988437131
0.153981452330
0.172514602633
0.192681561047
0.214580086226
0.238312319165
0.263985145392
0.291710634980
0.321606575984
0.353797121031
0.388413572071
0.425595335192
0.465491086574
0.508260203008
0.554074527371
0.603120563168
0.655602226065
0.711744329550
0.771797055247
0.836041770711
0.904798734256
0.978437513552
1.057391427651
1.142178165016
1.233430260155
1.331941997121
1.438744930081
1.555235326357
1.683398126798
1.826206090112
0.994141578674
0.000004827976
-0.754339368933
-0.682455274436
-0.591297661988
-0.488898377664
-0.384717857649
-0.287398489278
-0.203205437593
-0.135380777133
-0.084331229674
-0.048363705191
-0.024619159331
-0.009916169191
-0.001342095484
0.003442444238
0.006132733572
0.007854253895
0.009298718702
0.010863927801
0.012767889936
0.015129091543
0.018016755851
0.021479252223
0.025558640097
0.030297354790
0.035740880352
0.041938583483
0.048943811354
0.056813756787
0.065609295099
0.075394863184
0.086238398475
0.098211337989
0.111388674061
0.125849064522
0.141674997490
0.158953013562
0.177773990784
0.198233500422
0.220432244388
0.244476588409
0.270479208818
0.298559875510
0.328846399431
0.361475780365
0.396595600413
0.434365721228
0.474960359928
0.518570641579
0.565407757667
0.615706904283
0.669732236824
0.727783169833
0.790202486739
0.857386930478
0.929801264976
1.007997300817
1.092640186310
1.184545574119
1.284733380675
1.394507106934
1.515572062229
1.650209134960
1.801512388155
0.986821234226
0.000015258789
-0.631748643534
-0.567890440225
-0.488898377664
-0.401519501172
-0.313541792062
-0.232010892666
-0.161975062386
-0.105968935048
-0.064182203381
-0.035079821032
-0.016183630455
-0.004775189283
0.001614732536
0.004957485969
0.006673252058
0.007698329974
0.008602850851
0.009710424049
0.011195177418
0.013149676699
0.015627219587
0.018665557041
0.022298878856
0.026563185090
0.031498311002
0.037148446459
0.043562078722
0.050791778590
0.058893996865
0.067928925953
0.077960437861
0.089056096384
0.101287239392
0.114729129187
0.129461171919
0.145567210226
0.163135896406
0.182261156650
0.203042760409
0.225587012945
0.250007593849
0.276426570051
0.304975618997
0.335797506693
0.369047876911
0.404897422882
0.443534532684
0.485168525949
0.530033635276
0.578393934656
0.630549485104
0.686844063071
0.747674972898
0.813505639639
0.884881960963
0.962453805559
1.047003629890
1.139484989158
1.241074721765
1.353243522466
1.477849487055
1.617255154134
1.774453932326
0.976577758789
0.000037252903
-0.503893136289
-0.449985171610
-0.384717857649
-0.313541792062
-0.242612383010
-0.177428654535
-0.121872711853
-0.077822706730
-0.045301740503
-0.022979996721
-0.008800708286
-0.000539706915
0.003807539090
0.005832181403
0.006674292384
0.007080836614
0.007502973364
0.008193916103
0.009287878980
0.010855111303
0.012936021135
0.015560195575
0.018755905342
0.022554266603
0.026990717950
0.032105307752
0.037942544778
0.044551150945
0.051983849487
0.060297230992
0.069551704942
0.079811534077
0.091144948198
0.103624336441
0.117326520397
0.132333113832
0.148730978312
0.166612787620
0.186077717902
0.207232285005
0.230191355907
0.255079367616
0.282031795014
0.311196919115
0.342737960021
0.376835655129
0.413691384279
0.453530971109
0.496609326256
0.543216146350
0.593682947511
0.648391799139
0.707786241351
0.772385027297
0.842799541042
0.919756010679
1.004123958953
1.096952661027
1.199517555549
1.313378185062
1.440447458260
1.583067221257
1.744075130588
0.963416159153
0.000077247620
-0.382425542731
-0.338941470437
-0.287398489278
-0.232010892666
-0.177428654535
-0.127744014811
-0.085792867577
-0.052882509818
-0.028918986993
-0.012796884105
-0.002878579966
0.002580447508
0.005139764058
0.006030295262
0.006129599454
0.006009561819
0.006013323908
0.006331860590
0.007065458592
0.008266437545
0.009965557791
0.012186675505
0.014954005054
0.018295238329
0.022242590491
0.026832937145
0.032107630463
0.038112259125
0.044896456592
0.052513791107
0.061021743735
0.070481772921
0.080959463927
0.092524763975
0.105252307218
0.119221837137
0.134518737553
0.151234687355
0.169468458302
0.189326880204
0.210926003579
0.234392496886
0.259865323918
0.287497757496
0.317459798717
0.349941087546
0.385154411439
0.423339945390
0.464770390889
0.509757225097
0.558658327731
0.611887324860
0.669925079304
0.733333868548
0.802774921460
0.879030123060
0.963028809117
1.055880581915
1.158914824952
1.273726780888
1.402228211038
1.546697218531
1.709816680385
0.947342872620
0.000143110752
-0.275883102184
-0.242213751134
-0.203205437593
-0.161975062386
-0.121872711853
-0.085792867577
-0.055693542165
-0.032417925695
-0.015799551674
-0.004952445462
0.001378099588
0.004506988070
0.005599588321
0.005570505779
0.005068907794
0.004516129719
0.004163960502
0.004152060059
0.004553852434
0.005408344608
0.006739765388
0.008568443342
0.010916174534
0.013808501014
0.017275443862
0.021351562828
0.026075784865
0.031491203057
0.037644926964
0.044588011769
0.052375472843
0.061066386481
0.070724077604
0.081416397505
0.093216097757
0.106201309739
0.120456142826
0.136071418221
0.153145559820
0.171785668583
0.192108812861
0.214243574266
0.238331897281
0.264531301287
0.293017526568
0.323987701681
0.357664139214
0.394298891208
0.434179225550
0.477634221615
0.525042728446
0.576842982604
0.633544244985
0.695740883268
0.764129390595
0.839528872366
0.922905513872
1.015401393240
1.118367614230
1.233400940344
1.362381741280
1.507509070375
1.671326510304
0.928365767002
0.000244140625
-0.188892868512
-0.163758244604
-0.135380777133
-0.105968935048
-0.077822706730
-0.052882509818
-0.032417925695
-0.016920702907
-0.006188802120
0.000466168663
0.003973301072
0.005288687228
0.005251824449
0.004517993496
0.003550773713
0.002650558480
0.001996978690
0.001690249975
0.001784093351
0.002308537971
0.003284005769
0.004729127661
0.006664609992
0.009114878850
0.012108607778
0.015678757535
0.019862450513
0.024700829883
0.030238966431
0.036525836657
0.043614380214
0.051561640204
0.060428989898
0.070282451366
0.081193114194
0.093237665555
0.106499046330
0.121067251856
0.137040300235
0.154525396238
0.173640324744
0.194515114710
0.217294023047
0.242137897817
0.269226992292
0.298764315971
0.330979626203
0.366134185109
0.404526431500
0.446498746815
0.492445527664
0.542822814456
0.598159763139
0.659072279844
0.726279155400
0.800621019437
0.883082351037
0.974816587805
1.077174005831
1.191731436126
1.320322018481
1.465062191084
1.628372386411
0.906494140625
0.000391066074
-0.122416736740
-0.104243875933
-0.084331229674
-0.064182203381
-0.045301740503
-0.028918986993
-0.015799551674
-0.006188802120
0.000122860495
0.003657121863
0.005082826214
0.005074483331
0.004218560423
0.002970719250
0.001653007407
0.000474719292
-0.000437847579
-0.001012703383
-0.001209390026
-0.001003187870
-0.000375318753
0.000692533751
0.002220971148
0.004234077173
0.006759827235
0.009830148396
0.013480859247
0.017751600104
0.022685803134
0.028330723822
0.034737543760
0.041961551108
0.050062405060
0.059104492116
0.069157384301
0.080296412214
0.092603369043
0.106167365345
0.121085858635
0.137465886758
0.155425539738
0.175095711518
0.196622180965
0.220168080793
0.245916824130
0.274075571364
0.304879335024
0.338595837983
0.375531260124
0.416037030660
0.460517846625
0.509441120858
0.563348081705
0.622866755656
0.688727053553
0.761778135903
0.843008132316
0.933566107832
1.034785879255
1.148210877505
1.275618764535
1.419044077118
1.580797058120
0.881738722324
0.000596046448
-0.074678022571
-0.061892229795
-0.048363705191
-0.035079821032
-0.022979996721
-0.012796884105
-0.004952445462
0.000466168663
0.003657121863
0.005008625182
0.004992416436
0.004073977516
0.002654153173
0.001043579143
-0.000537444623
-0.001944186242
-0.003087292234
-0.003913523099
-0.004390476760
-0.004495948685
-0.004211266929
-0.003517500529
-0.002393502721
-0.000815009311
0.001245715114
0.003819980203
0.006942682228
0.010652307085
0.014990963846
0.020004469148
0.025742494216
0.032258783492
0.039611453624
0.047863382702
0.057082701577
0.067343401528
0.078726075540
0.091318813858
0.105218278556
0.120530986459
0.137374835225
0.155880913626
0.176195644415
0.198483316587
0.222929073624
0.249742435488
0.279161444770
0.311457541491
0.346941286239
0.385969067122
0.428950941028
0.476359772118
0.528741836663
0.586729058383
0.651053014684
0.722560801666
0.802232752483
0.891201857970
0.990774535242
1.102452141490
1.227952382849
1.369229620934
1.528493186879
0.854111671448
0.000872671604
-0.042337659520
-0.033546843019
-0.024619159331
-0.016183630455
-0.008800708286
-0.002878579966
0.001378099588
0.003973301072
0.005082826214
0.004992416436
0.004031211140
0.002516902463
0.000720884821
-0.001146213455
-0.002933399539
-0.004539174185
-0.005898221008
-0.006968816825
-0.007722828112
-0.008138676910
-0.008196855518
-0.007877298545
-0.007157958362
-0.006014088305
-0.004417905845
-0.002338438592
0.000258557785
0.003410670034
0.007158919249
0.011547893759
0.016625936333
0.022445396716
0.029062960235
0.036540064071
0.044943414379
0.054345619599
0.064825958007
0.076471300720
0.089377215132
0.103649278074
0.119404633010
0.136773831357
0.155903004583
0.176956421287
0.200119491897
0.225602293116
0.253643694556
0.284516181041
0.318531475358
0.356047076989
0.397473841370
0.443284729543
0.494024856853
0.550322957667
0.612904355884
0.682605482403
0.760389905091
0.847365731299
0.944804111759
1.054158435571
1.177083697507
1.315455504420
1.471388346617
0.823626577854
0.001235961914
-0.021562274159
-0.015642261618
-0.009916169191
-0.004775189283
-0.000539706915
0.002580447508
0.004506988070
0.005288687228
0.005074483331
0.004073977516
0.002516902463
0.000620623024
-0.001429942954
-0.003490109183
-0.005453936815
-0.007247465150
-0.008820141749
-0.010136759165
-0.011171002593
-0.011900835440
-0.012305472237
-0.012363524676
-0.012051924883
-0.011345321111
-0.010215739189
-0.008632380676
-0.006561480755
-0.003966180372
-0.000806384610
0.002961411491
0.007384343998
0.012513460539
0.018404072303
0.025116190434
0.032715060969
0.041271814429
0.050864248534
0.061577765493
0.073506488711
0.086754587763
0.101437845067
0.117685502841
0.135642434885
0.155471694227
0.177357494959
0.201508694478
0.228162850631
0.257590936822
0.290102806297
0.326053503947
0.365850528903
0.409962152259
0.458926889464
0.513364213412
0.573986569122
0.641612711184
0.717182329204
0.801771855751
0.896611272910
1.003101663675
1.122833220258
1.257603460267
1.409435551331
0.790298461914
0.001702368259
-0.008781247442
-0.004887059367
-0.001342095484
0.001614732536
0.003807539090
0.005139764058
0.005599588321
0.005251824449
0.004218560423
0.002654153173
0.000720884821
-0.001429942954
-0.003669324700
-0.005894598324
-0.008028097446
-0.010012757043
-0.011806697030
-0.013378120670
-0.014701172696
-0.015752897900
-0.016511163726
-0.016953311504
-0.017055306239
-0.016791203149
-0.016132803143
-0.015049413203
-0.013507657811
-0.011471306390
-0.008901092735
-0.005754508515
-0.001985556104
0.002455552581
0.007622764322
0.013574633518
0.020374866557
0.028092978110
0.036805078002
0.046594809987
0.057554466856
0.069786309960
0.083404125346
0.098535053357
0.115321733718
0.133924813852
0.154525874289
0.177330831578
0.202573885758
0.230522085982
0.261480593793
0.295798728184
0.333876878988
0.376174374123
0.423218380339
0.475613904639
0.534054943013
0.599336793429
0.672369511747
0.754192445190
0.845989735533
0.949106655352
1.065066643470
1.195588960376
1.342607007657
0.754143774509
0.002289772034
-0.001087495752
0.001379572237
0.003442444238
0.004957485969
0.005832181403
0.006030295262
0.005570505779
0.004517993496
0.002970719250
0.001043579143
-0.001146213455
-0.003490109183
-0.005894598324
-0.008283323194
-0.010596068179
-0.012785987429
-0.014816227753
-0.016656713563
-0.018281472837
-0.019666599467
-0.020788788175
-0.021624317042
-0.022148349965
-0.022334453792
-0.022154252284
-0.021577162118
-0.020570172730
-0.019097642613
-0.017121091321
-0.014598970426
-0.011486398787
-0.007734848538
-0.003291768324
0.001899870180
0.007902117474
0.014782699706
0.022615798940
0.031482981155
0.041474295749
0.052689573615
0.065239954529
0.079249678739
0.094858182186
0.112222539696
0.131520305700
0.152952807415
0.176748950803
0.203169604647
0.232512632442
0.265118644839
0.301377546513
0.341735949585
0.386705520336
0.436872315866
0.492907152103
0.555577024156
0.625757575790
0.704446590002
0.792778453148
0.892039539405
1.003684481522
1.129353348335
1.270889845942
0.715180397034
0.003017485142
0.003654709909
0.005098420806
0.006132733572
0.006673252058
0.006674292384
0.006129599454
0.005068907794
0.003550773713
0.001653007407
-0.000537444623
-0.002933399539
-0.005453936815
-0.008028097446
-0.010596068179
-0.013108535574
-0.015524990518
-0.017811642426
-0.019939385716
-0.021882047861
-0.023614990506
-0.025114043248
-0.026354710406
-0.027311584020
-0.027957904187
-0.028265219904
-0.028203114564
-0.027738968636
-0.026837737894
-0.025461729341
-0.023570359430
-0.021119880507
-0.018063062061
-0.014348813337
-0.009921733378
-0.004721573544
0.001317403795
0.008267188573
0.016206928648
0.025224000662
0.035415271986
0.046888582908
0.059764481898
0.074178250736
0.090282260550
0.108248704236
0.128272755233
0.150576206978
0.175411651394
0.203067258064
0.233872217938
0.268202916029
0.306489896012
0.349225675447
0.396973463137
0.450376819858
0.510170290956
0.577191025637
0.652391386040
0.736852543704
0.831799067630
0.938614533095
1.058858229080
1.194283116273
0.673427641392
0.003906250000
0.006886599383
0.007567990306
0.007854253895
0.007698329974
0.007080836614
0.006009561819
0.004516129719
0.002650558480
0.000474719292
-0.001944186242
-0.004539174185
-0.007247465150
-0.010012757043
-0.012785987429
-0.015524990518
-0.018193496093
-0.020759848957
-0.023195710161
-0.025474885420
-0.027572338297
-0.029463391657
-0.031123094433
-0.032525721970
-0.033644378455
-0.034450673670
-0.034914450507
-0.035003543292
-0.034683549743
-0.033917601320
-0.032666118045
-0.030886534617
-0.028532984913
-0.025555931812
-0.021901728707
-0.017512098131
-0.012323511591
-0.006266453076
0.000735453332
0.008766473601
0.017919976203
0.028299854349
0.040022188741
0.053217185061
0.068031424103
0.084630466256
0.103201855854
0.123958574551
0.147142996197
0.173031398388
0.201939087662
0.234226195938
0.270304204849
0.310643251979
0.355780268520
0.406327991846
0.462984889713
0.526546026620
0.597914899622
0.678116273699
0.768310059202
0.869806299702
0.984081380032
1.112795621491
0.628906250000
0.004978239536
0.009513282957
0.009594614640
0.009298718702
0.008602850851
0.007502973364
0.006013323908
0.004163960502
0.001996978690
-0.000437847579
-0.003087292234
-0.005898221008
-0.008820141749
-0.011806697030
-0.014816227753
-0.017811642426
-0.020759848957
-0.023630970047
-0.026397501595
-0.029033511099
-0.031513923748
-0.033813911137
-0.035908379048
-0.037771541905
-0.039376568249
-0.040695281143
-0.041697897958
-0.042352795009
-0.042626283350
-0.042482382848
-0.041882582150
-0.040785572419
-0.039146942725
-0.036918824605
-0.034049472729
-0.030482767633
-0.026157625279
-0.021007296623
-0.014958538596
-0.007930635731
0.000165750672
0.009429931629
0.019972766460
0.031918497420
0.045406877955
0.060595632846
0.077663291837
0.096812441440
0.118273442512
0.142308663560
0.169217281465
0.199340702193
0.233068653950
0.270846004068
0.313180348830
0.360650422803
0.413915371816
0.473724932711
0.540930565084
0.616497587570
0.701518386076
0.797226785731
0.905013713127
1.026444320098
0.581638395786
0.006257057190
0.012071204831
0.011648795320
0.010863927801
0.009710424049
0.008193916103
0.006331860590
0.004152060059
0.001690249975
-0.001012703383
-0.003913523099
-0.006968816825
-0.010136759165
-0.013378120670
-0.016656713563
-0.019939385716
-0.023195710161
-0.026397501595
-0.029518260328
-0.032532610911
-0.035415774646
-0.038143094888
-0.040689620765
-0.043029747053
-0.045136903473
-0.046983284374
-0.048539608581
-0.049774898724
-0.050656269215
-0.051148712007
-0.051214869274
-0.050814782055
-0.049905603615
-0.048441265847
-0.046372086352
-0.043644302869
-0.040199520601
-0.035974056511
-0.030898163003
-0.024895111475
-0.017880114050
-0.009759059446
-0.000427036334
0.010233385208
0.022354146371
0.036084001633
0.051591168181
0.069066363654
0.088726275697
0.110817509070
0.135621057889
0.163457351844
0.194691925931
0.229741763445
0.269082361788
0.313255570612
0.362878252478
0.418651818573
0.481372697337
0.551943803485
0.631387090299
0.720857290222
0.821656978076
0.935253126691
0.531647682190
0.007767736912
0.014866939608
0.013993689986
0.012767889936
0.011195177418
0.009287878980
0.007065458592
0.004553852434
0.001784093351
-0.001209390026
-0.004390476760
-0.007722828112
-0.011171002593
-0.014701172696
-0.018281472837
-0.021882047861
-0.025474885420
-0.029033511099
-0.032532610911
-0.035947628520
-0.039254368627
-0.042428625088
-0.045445842913
-0.048280816649
-0.050907423219
-0.053298384386
-0.055425052118
-0.057257208970
-0.058762874877
-0.059908111261
-0.060656813010
-0.060970478514
-0.060807947497
-0.060125095844
-0.058874475857
-0.057004889491
-0.054460880955
-0.051182133759
-0.047102755720
-0.042150433684
-0.036245437759
-0.029299452700
-0.021214211758
-0.011879905838
-0.001173338228
0.011044207455
0.024929421132
0.040659779530
0.058436758882
0.078489489376
0.101078895593
0.126502368940
0.155099019479
0.187255555845
0.223412843313
0.264073191840
0.309808428726
0.361268815023
0.419192871922
0.484418193997
0.557893341132
0.640690920892
0.734021997843
0.839251995269
0.478959143162
0.009536743164
0.018076116182
0.016776029700
0.015129091543
0.013149676699