# vtk DataFile Version 2.0
TITLE = "Quad data"
ASCII
DATASET STRUCTURED_GRID
DIMENSIONS 17 17 1
POINTS 289 FLOAT
0.000000 0.000000 0.000000
0.000000 0.062500 0.000000
0.000000 0.125000 0.000000
0.000000 0.187500 0.000000
0.000000 0.250000 0.000000
0.000000 0.312500 0.000000
0.000000 0.375000 0.000000
0.000000 0.437500 0.000000
0.000000 0.500000 0.000000
0.000000 0.562500 0.000000
0.000000 0.625000 0.000000
0.000000 0.687500 0.000000
0.000000 0.750000 0.000000
0.000000 0.812500 0.000000
0.000000 0.875000 0.000000
0.000000 0.937500 0.000000
0.000000 1.000000 0.000000
0.062500 0.000000 0.000000
0.062500 0.062500 0.000000
0.062500 0.125000 0.000000
0.062500 0.187500 0.000000
0.062500 0.250000 0.000000
0.062500 0.312500 0.000000
0.062500 0.375000 0.000000
0.062500 0.437500 0.000000
0.062500 0.500000 0.000000
0.062500 0.562500 0.000000
0.062500 0.625000 0.000000
0.062500 0.687500 0.000000
0.062500 0.750000 0.000000
0.062500 0.812500 0.000000
0.062500 0.875000 0.000000
0.062500 0.937500 0.000000
0.062500 1.000000 0.000000
0.125000 0.000000 0.000000
0.125000 0.062500 0.000000
0.125000 0.125000 0.000000
0.125000 0.187500 0.000000
0.125000 0.250000 0.000000
0.125000 0.312500 0.000000
0.125000 0.375000 0.000000
0.125000 0.437500 0.000000
0.125000 0.500000 0.000000
0.125000 0.562500 0.000000
0.125000 0.625000 0.000000
0.125000 0.687500 0.000000
0.125000 0.750000 0.000000
0.125000 0.812500 0.000000
0.125000 0.875000 0.000000
0.125000 0.937500 0.000000
0.125000 1.000000 0.000000
0.187500 0.000000 0.000000
0.187500 0.062500 0.000000
0.187500 0.125000 0.000000
0.187500 0.187500 0.000000
0.187500 0.250000 0.000000
0.187500 0.312500 0.000000
0.187500 0.375000 0.000000
0.187500 0.437500 0.000000
0.187500 0.500000 0.000000
0.187500 0.562500 0.000000
0.187500 0.625000 0.000000
0.187500 0.687500 0.000000
0.187500 0.750000 0.000000
0.187500 0.812500 0.000000
0.187500 0.875000 0.000000
0.187500 0.937500 0.000000
0.187500 1.000000 0.000000
0.250000 0.000000 0.000000
0.250000 0.062500 0.000000
0.250000 0.125000 0.000000
0.250000 0.187500 0.000000
0.250000 0.250000 0.000000
0.250000 0.312500 0.000000
0.250000 0.375000 0.000000
0.250000 0.437500 0.000000
0.250000 0.500000 0.000000
0.250000 0.562500 0.000000
0.250000 0.625000 0.000000
0.250000 0.687500 0.000000
0.250000 0.750000 0.000000
0.250000 0.812500 0.000000
0.250000 0.875000 0.000000
0.250000 0.937500 0.000000
0.250000 1.000000 0.000000
0.312500 0.000000 0.000000
0.312500 0.062500 0.000000
0.312500 0.125000 0.000000
0.312500 0.187500 0.000000
0.312500 0.250000 0.000000
0.312500 0.312500 0.000000
0.312500 0.375000 0.000000
0.312500 0.437500 0.000000
0.312500 0.500000 0.000000
0.312500 0.562500 0.000000
0.312500 0.625000 0.000000
0.312500 0.687500 0.000000
0.312500 0.750000 0.000000
0.312500 0.812500 0.000000
0.312500 0.875000 0.000000
0.312500 0.937500 0.000000
0.312500 1.000000 0.000000
0.375000 0.000000 0.000000
0.375000 0.062500 0.000000
0.375000 0.125000 0.000000
0.375000 0.187500 0.000000
0.375000 0.250000 0.000000
0.375000 0.312500 0.000000
0.375000 0.375000 0.000000
0.375000 0.437500 0.000000
0.375000 0.500000 0.000000
0.375000 0.562500 0.000000
0.375000 0.625000 0.000000
0.375000 0.687500 0.000000
0.375000 0.750000 0.000000
0.375000 0.812500 0.000000
0.375000 0.875000 0.000000
0.375000 0.937500 0.000000
0.375000 1.000000 0.000000
0.437500 0.000000 0.000000
0.437500 0.062500 0.000000
0.437500 0.125000 0.000000
0.437500 0.187500 0.000000
0.437500 0.250000 0.000000
0.437500 0.312500 0.000000
0.437500 0.375000 0.000000
0.437500 0.437500 0.000000
0.437500 0.500000 0.000000
0.437500 0.562500 0.000000
0.437500 0.625000 0.000000
0.437500 0.687500 0.000000
0.437500 0.750000 0.000000
0.437500 0.812500 0.000000
0.437500 0.875000 0.000000
0.437500 0.937500 0.000000
0.437500 1.000000 0.000000
0.500000 0.000000 0.000000
0.500000 0.062500 0.000000
0.500000 0.125000 0.000000
0.500000 0.187500 0.000000
0.500000 0.250000 0.000000
0.500000 0.312500 0.000000
0.500000 0.375000 0.000000
0.500000 0.437500 0.000000
0.500000 0.500000 0.000000
0.500000 0.562500 0.000000
0.500000 0.625000 0.000000
0.500000 0.687500 0.000000
0.500000 0.750000 0.000000
0.500000 0.812500 0.000000
0.500000 0.875000 0.000000
0.500000 0.937500 0.000000
0.500000 1.000000 0.000000
0.562500 0.000000 0.000000
0.562500 0.062500 0.000000
0.562500 0.125000 0.000000
0.562500 0.187500 0.000000
0.562500 0.250000 0.000000
0.562500 0.312500 0.000000
0.562500 0.375000 0.000000
0.562500 0.437500 0.000000
0.562500 0.500000 0.000000
0.562500 0.562500 0.000000
0.562500 0.625000 0.000000
0.562500 0.687500 0.000000
0.562500 0.750000 0.000000
0.562500 0.812500 0.000000
0.562500 0.875000 0.000000
0.562500 0.937500 0.000000
0.562500 1.000000 0.000000
0.625000 0.000000 0.000000
0.625000 0.062500 0.000000
0.625000 0.125000 0.000000
0.625000 0.187500 0.000000
0.625000 0.250000 0.000000
0.625000 0.312500 0.000000
0.625000 0.375000 0.000000
0.625000 0.437500 0.000000
0.625000 0.500000 0.000000
0.625000 0.562500 0.000000
0.625000 0.625000 0.000000
0.625000 0.687500 0.000000
0.625000 0.750000 0.000000
0.625000 0.812500 0.000000
0.625000 0.875000 0.000000
0.625000 0.937500 0.000000
0.625000 1.000000 0.000000
0.687500 0.000000 0.000000
0.687500 0.062500 0.000000
0.687500 0.125000 0.000000
0.687500 0.187500 0.000000
0.687500 0.250000 0.000000
0.687500 0.312500 0.000000
0.687500 0.375000 0.000000
0.687500 0.437500 0.000000
0.687500 0.500000 0.000000
0.687500 0.562500 0.000000
0.687500 0.625000 0.000000
0.687500 0.687500 0.000000
0.687500 0.750000 0.000000
0.687500 0.812500 0.000000
0.687500 0.875000 0.000000
0.687500 0.937500 0.000000
0.687500 1.000000 0.000000
0.750000 0.000000 0.000000
0.750000 0.062500 0.000000
0.750000 0.125000 0.000000
0.750000 0.187500 0.000000
0.750000 0.250000 0.000000
0.750000 0.312500 0.000000
0.750000 0.375000 0.000000
0.750000 0.437500 0.000000
0.750000 0.500000 0.000000
0.750000 0.562500 0.000000
0.750000 0.625000 0.000000
0.750000 0.687500 0.000000
0.750000 0.750000 0.000000
0.750000 0.812500 0.000000
0.750000 0.875000 0.000000
0.750000 0.937500 0.000000
0.750000 1.000000 0.000000
0.812500 0.000000 0.000000
0.812500 0.062500 0.000000
0.812500 0.125000 0.000000
0.812500 0.187500 0.000000
0.812500 0.250000 0.000000
0.812500 0.312500 0.000000
0.812500 0.375000 0.000000
0.812500 0.437500 0.000000
0.812500 0.500000 0.000000
0.812500 0.562500 0.000000
0.812500 0.625000 0.000000
0.812500 0.687500 0.000000
0.812500 0.750000 0.000000
0.812500 0.812500 0.000000
0.812500 0.875000 0.000000
0.812500 0.937500 0.000000
0.812500 1.000000 0.000000
0.875000 0.000000 0.000000
0.875000 0.062500 0.000000
0.875000 0.125000 0.000000
0.875000 0.187500 0.000000
0.875000 0.250000 0.000000
0.875000 0.312500 0.000000
0.875000 0.375000 0.000000
0.875000 0.437500 0.000000
0.875000 0.500000 0.000000
0.875000 0.562500 0.000000
0.875000 0.625000 0.000000
0.875000 0.687500 0.000000
0.875000 0.750000 0.000000
0.875000 0.812500 0.000000
0.875000 0.875000 0.000000
0.875000 0.937500 0.000000
0.875000 1.000000 0.000000
0.937500 0.000000 0.000000
0.937500 0.062500 0.000000
0.937500 0.125000 0.000000
0.937500 0.187500 0.000000
0.937500 0.250000 0.000000
0.937500 0.312500 0.000000
0.937500 0.375000 0.000000
0.937500 0.437500 0.000000
0.937500 0.500000 0.000000
0.937500 0.562500 0.000000
0.937500 0.625000 0.000000
0.937500 0.687500 0.000000
0.937500 0.750000 0.000000
0.937500 0.812500 0.000000
0.937500 0.875000 0.000000
0.937500 0.937500 0.000000
0.937500 1.000000 0.000000
1.000000 0.000000 0.000000
1.000000 0.062500 0.000000
1.000000 0.125000 0.000000
1.000000 0.187500 0.000000
1.000000 0.250000 0.000000
1.000000 0.312500 0.000000
1.000000 0.375000 0.000000
1.000000 0.437500 0.000000
1.000000 0.500000 0.000000
1.000000 0.562500 0.000000
1.000000 0.625000 0.000000
1.000000 0.687500 0.000000
1.000000 0.750000 0.000000
1.000000 0.812500 0.000000
1.000000 0.875000 0.000000
1.000000 0.937500 0.000000
1.000000 1.000000 0.000000
POINT_DATA 289
SCALARS phi FLOAT 1
LOOKUP_TABLE default
0.000000000000
0.000015258789
0.000244140625
0.001235961914
0.003906250000
0.009536743164
0.019775390625
0.036636352539
0.062500000000
0.100112915039
0.152587890625
0.223403930664
0.316406250000
0.435806274414
0.586181640625
0.772476196289
1.000000000000
0.000015258789
-0.456666043256
-0.140597712201
-0.017729632327
0.005328315826
0.016417237872
0.035074275510
0.066469423941
0.115359762200
0.187204841528
0.288207873660
0.425326550696
0.606290591151
0.839632421548
1.134746152928
1.502017224354
0.976577758789
0.000244140625
-0.140597712201
-0.043710823591
-0.007114497312
-0.000511799260
0.005067876447
0.017905040031
0.042326290577
0.083035223773
0.145464730551
0.235799873175
0.360996793999
0.528811934389
0.747848318540
1.027631269920
1.378735198561
0.906494140625
0.001235961914
-0.017729632327
-0.007114497312
-0.006951814144
-0.011319582783
-0.013924242798
-0.010818122602
0.001994647213
0.029184863943
0.076160055452
0.149082882443
0.254895022865
0.401351537068
0.597070494794
0.851603971564
1.175535454362
0.790298461914
0.003906250000
0.005328315826
-0.000511799260
-0.011319582783
-0.024981346339
-0.038722350828
-0.049274884929
-0.052709591712
-0.044381859335
-0.018913544621
0.029826192618
0.108746471493
0.225569520138
0.388877657657
0.608174696336
0.893960925771
0.628906250000
0.009536743164
0.016417237872
0.005067876447
-0.013924242798
-0.038722350828
-0.066804468594
-0.094964848991
-0.119299544685
-0.135192905741
-0.137302613727
-0.119540861129
-0.075049724627
0.003831308785
0.125607521811
0.299681756956
0.536416332572
0.423599243164
0.019775390625
0.035074275510
0.017905040031
-0.010818122602
-0.049274884929
-0.094964848991
-0.144702780682
-0.194610114361
-0.240104117537
-0.275884594009
-0.295917129218
-0.293411396875
-0.260792824994
-0.189666021664
-0.070768989434
0.106081465926
0.176025390625
0.036636352539
0.066469423941
0.042326290577
0.001994647213
-0.052709591712
-0.119299544685
-0.194610114361
-0.274789750636
-0.355291192837
-0.430860702097
-0.495524809752
-0.542573207063
-0.564536084941
-0.553154050454
-0.499338831701
-0.393123533135
-0.111801147461
0.062500000000
0.115359762200
0.083035223773
0.029184863943
-0.044381859335
-0.135192905741
-0.240104117537
-0.355291192837
-0.476242455844
-0.597751566639
-0.713909116174
-0.818091748200
-0.902946993970
-0.960371396621
-0.981478851059
-0.956555736583
-0.437500000000
0.100112915039
0.187204841528
0.145464730551
0.076160055452
-0.018913544621
-0.137302613727
-0.275884594009
-0.430860702097
-0.597751566639
-0.771394453748
-0.945941046094
-1.114854584453
-1.270904585931
-1.406156197990
-1.511949520612
-1.578862353819
-0.798324584961
0.152587890625
0.288207873660
0.235799873175
0.149082882443
0.029826192618
-0.119540861129
-0.295917129218
-0.495524809752
-0.713909116174
-0.945941046094
-1.185822529996
-1.427093370677
-1.662638773745
-1.884694572829
-2.084844027227
-2.253995297329
-1.191162109375
0.223403930664
0.425326550696
0.360996793999
0.254895022865
0.108746471493
-0.075049724627
-0.293411396875
-0.542573207063
-0.818091748200
-1.114854584453
-1.427093370677
-1.748401804666
-2.071758883696
-2.389556134771
-2.693622773552
-2.975233233399
-1.612533569336
0.316406250000
0.606290591151
0.528811934389
0.401351537068
0.225569520138
0.003831308785
-0.260792824994
-0.564536084941
-0.902946993970
-1.270904585931
-1.662638773745
-2.071758883696
-2.491294023166
-2.913748424201
-3.331170579773
-3.735220768632
-2.058593750000
0.435806274414
0.839632421548
0.747848318540
0.597070494794
0.388877657657
0.125607521811
-0.189666021664
-0.553154050454
-0.960371396621
-1.406156197990
-1.884694572829
-2.389556134771
-2.913748424201
-3.449801677279
-3.989897504166
-4.526046035135
-2.525131225586
0.586181640625
1.134746152928
1.027631269920
0.851603971564
0.608174696336
0.299681756956
-0.070768989434
-0.499338831701
-0.981478851059
-1.511949520612
-2.084844027227
-2.693622773552
-3.331170579773
-3.989897504166
-4.661922805186
-5.339411206386
-3.007568359375
0.772476196289
1.502017224354
1.378735198561
1.175535454362
0.893960925771
0.536416332572
0.106081465926
-0.393123533135
-0.956555736583
-1.578862353819
-2.253995297329
-2.975233233399
-3.735220768632
-4.526046035135
-5.339411206386
-6.167053412676
-3.500961303711
1.000000000000
0.976577758789
0.906494140625
0.790298461914
0.628906250000
0.423599243164
0.176025390625
-0.111801147461
-0.437500000000
-0.798324584961
-1.191162109375
-1.612533569336
-2.058593750000
-2.525131225586
-3.007568359375
-3.500961303711
-4.000000000000
