# vtk DataFile Version 2.0
TITLE = "Quad data"
ASCII
DATASET STRUCTURED_GRID
DIMENSIONS 201 201 1
POINTS 40401 FLOAT
-1.000000 -1.000000 0.000000
-1.000000 -0.990000 0.000000
-1.000000 -0.980000 0.000000
-1.000000 -0.970000 0.000000
-1.000000 -0.960000 0.000000
-1.000000 -0.950000 0.000000
-1.000000 -0.940000 0.000000
-1.000000 -0.930000 0.000000
-1.000000 -0.920000 0.000000
-1.000000 -0.910000 0.000000
-1.000000 -0.900000 0.000000
-1.000000 -0.890000 0.000000
-1.000000 -0.880000 0.000000
-1.000000 -0.870000 0.000000
-1.000000 -0.860000 0.000000
-1.000000 -0.850000 0.000000
-1.000000 -0.840000 0.000000
-1.000000 -0.830000 0.000000
-1.000000 -0.820000 0.000000
-1.000000 -0.810000 0.000000
-1.000000 -0.800000 0.000000
-1.000000 -0.790000 0.000000
-1.000000 -0.780000 0.000000
-1.000000 -0.770000 0.000000
-1.000000 -0.760000 0.000000
-1.000000 -0.750000 0.000000
-1.000000 -0.740000 0.000000
-1.000000 -0.730000 0.000000
-1.000000 -0.720000 0.000000
-1.000000 -0.710000 0.000000
-1.000000 -0.700000 0.000000
-1.000000 -0.690000 0.000000
-1.000000 -0.680000 0.000000
-1.000000 -0.670000 0.000000
-1.000000 -0.660000 0.000000
-1.000000 -0.650000 0.000000
-1.000000 -0.640000 0.000000
-1.000000 -0.630000 0.000000
-1.000000 -0.620000 0.000000
-1.000000 -0.610000 0.000000
-1.000000 -0.600000 0.000000
-1.000000 -0.590000 0.000000
-1.000000 -0.580000 0.000000
-1.000000 -0.570000 0.000000
-1.000000 -0.560000 0.000000
-1.000000 -0.550000 0.000000
-1.000000 -0.540000 0.000000
-1.000000 -0.530000 0.000000
-1.000000 -0.520000 0.000000
-1.000000 -0.510000 0.000000
-1.000000 -0.500000 0.000000
-1.000000 -0.490000 0.000000
-1.000000 -0.480000 0.000000
-1.000000 -0.470000 0.000000
-1.000000 -0.460000 0.000000
-1.000000 -0.450000 0.000000
-1.000000 -0.440000 0.000000
-1.000000 -0.430000 0.000000
-1.000000 -0.420000 0.000000
-1.000000 -0.410000 0.000000
-1.000000 -0.400000 0.000000
-1.000000 -0.390000 0.000000
-1.000000 -0.380000 0.000000
-1.000000 -0.370000 0.000000
-1.000000 -0.360000 0.000000
-1.000000 -0.350000 0.000000
-1.000000 -0.340000 0.000000
-1.000000 -0.330000 0.000000
-1.000000 -0.320000 0.000000
-1.000000 -0.310000 0.000000
-1.000000 -0.300000 0.000000
-1.000000 -0.290000 0.000000
-1.000000 -0.280000 0.000000
-1.000000 -0.270000 0.000000
-1.000000 -0.260000 0.000000
-1.000000 -0.250000 0.000000
-1.000000 -0.240000 0.000000
-1.000000 -0.230000 0.000000
-1.000000 -0.220000 0.000000
-1.000000 -0.210000 0.000000
-1.000000 -0.200000 0.000000
-1.000000 -0.190000 0.000000
-1.000000 -0.180000 0.000000
-1.000000 -0.170000 0.000000
-1.000000 -0.160000 0.000000
-1.000000 -0.150000 0.000000
-1.000000 -0.140000 0.000000
-1.000000 -0.130000 0.000000
-1.000000 -0.120000 0.000000
-1.000000 -0.110000 0.000000
-1.000000 -0.100000 0.000000
-1.000000 -0.090000 0.000000
-1.000000 -0.080000 0.000000
-1.000000 -0.070000 0.000000
-1.000000 -0.060000 0.000000
-1.000000 -0.050000 0.000000
-1.000000 -0.040000 0.000000
-1.000000 -0.030000 0.000000
-1.000000 -0.020000 0.000000
-1.000000 -0.010000 0.000000
-1.000000 0.000000 0.000000
-1.000000 0.010000 0.000000
-1.000000 0.020000 0.000000
-1.000000 0.030000 0.000000
-1.000000 0.040000 0.000000
-1.000000 0.050000 0.000000
-1.000000 0.060000 0.000000
-1.000000 0.070000 0.000000
-1.000000 0.080000 0.000000
-1.000000 0.090000 0.000000
-1.000000 0.100000 0.000000
-1.000000 0.110000 0.000000
-1.000000 0.120000 0.000000
-1.000000 0.130000 0.000000
-1.000000 0.140000 0.000000
-1.000000 0.150000 0.000000
-1.000000 0.160000 0.000000
-1.000000 0.170000 0.000000
-1.000000 0.180000 0.000000
-1.000000 0.190000 0.000000
-1.000000 0.200000 0.000000
-1.000000 0.210000 0.000000
-1.000000 0.220000 0.000000
-1.000000 0.230000 0.000000
-1.000000 0.240000 0.000000
-1.000000 0.250000 0.000000
-1.000000 0.260000 0.000000
-1.000000 0.270000 0.000000
-1.000000 0.280000 0.000000
-1.000000 0.290000 0.000000
-1.000000 0.300000 0.000000
-1.000000 0.310000 0.000000
-1.000000 0.320000 0.000000
-1.000000 0.330000 0.000000
-1.000000 0.340000 0.000000
-1.000000 0.350000 0.000000
-1.000000 0.360000 0.000000
-1.000000 0.370000 0.000000
-1.000000 0.380000 0.000000
-1.000000 0.390000 0.000000
-1.000000 0.400000 0.000000
-1.000000 0.410000 0.000000
-1.000000 0.420000 0.000000
-1.000000 0.430000 0.000000
-1.000000 0.440000 0.000000
-1.000000 0.450000 0.000000
-1.000000 0.460000 0.000000
-1.000000 0.470000 0.000000
-1.000000 0.480000 0.000000
-1.000000 0.490000 0.000000
-1.000000 0.500000 0.000000
-1.000000 0.510000 0.000000
-1.000000 0.520000 0.000000
-1.000000 0.530000 0.000000
-1.000000 0.540000 0.000000
-1.000000 0.550000 0.000000
-1.000000 0.560000 0.000000
-1.000000 0.570000 0.000000
-1.000000 0.580000 0.000000
-1.000000 0.590000 0.000000
-1.000000 0.600000 0.000000
-1.000000 0.610000 0.000000
-1.000000 0.620000 0.000000
-1.000000 0.630000 0.000000
-1.000000 0.640000 0.000000
-1.000000 0.650000 0.000000
-1.000000 0.660000 0.000000
-1.000000 0.670000 0.000000
-1.000000 0.680000 0.000000
-1.000000 0.690000 0.000000
-1.000000 0.700000 0.000000
-1.000000 0.710000 0.000000
-1.000000 0.720000 0.000000
-1.000000 0.730000 0.000000
-1.000000 0.740000 0.000000
-1.000000 0.750000 0.000000
-1.000000 0.760000 0.000000
-1.000000 0.770000 0.000000
-1.000000 0.780000 0.000000
-1.000000 0.790000 0.000000
-1.000000 0.800000 0.000000
-1.000000 0.810000 0.000000
-1.000000 0.820000 0.000000
-1.000000 0.830000 0.000000
-1.000000 0.840000 0.000000
-1.000000 0.850000 0.000000
-1.000000 0.860000 0.000000
-1.000000 0.870000 0.000000
-1.000000 0.880000 0.000000
-1.000000 0.890000 0.000000
-1.000000 0.900000 0.000000
-1.000000 0.910000 0.000000
-1.000000 0.920000 0.000000
-1.000000 0.930000 0.000000
-1.000000 0.940000 0.000000
-1.000000 0.950000 0.000000
-1.000000 0.960000 0.000000
-1.000000 0.970000 0.000000
-1.000000 0.980000 0.000000
-1.000000 0.990000 0.000000
-1.000000 1.000000 0.000000
-0.990000 -1.000000 0.000000
-0.990000 -0.990000 0.000000
-0.990000 -0.980000 0.000000
-0.990000 -0.970000 0.000000
-0.990000 -0.960000 0.000000
-0.990000 -0.950000 0.000000
-0.990000 -0.940000 0.000000
-0.990000 -0.930000 0.000000
-0.990000 -0.920000 0.000000
-0.990000 -0.910000 0.000000
-0.990000 -0.900000 0.000000
-0.990000 -0.890000 0.000000
-0.990000 -0.880000 0.000000
-0.990000 -0.870000 0.000000
-0.990000 -0.860000 0.000000
-0.990000 -0.850000 0.000000
-0.990000 -0.840000 0.000000
-0.990000 -0.830000 0.000000
-0.990000 -0.820000 0.000000
-0.990000 -0.810000 0.000000
-0.990000 -0.800000 0.000000
-0.990000 -0.790000 0.000000
-0.990000 -0.780000 0.000000
-0.990000 -0.770000 0.000000
-0.990000 -0.760000 0.000000
-0.990000 -0.750000 0.000000
-0.990000 -0.740000 0.000000
-0.990000 -0.730000 0.000000
-0.990000 -0.720000 0.000000
-0.990000 -0.710000 0.000000
-0.990000 -0.700000 0.000000
-0.990000 -0.690000 0.000000
-0.990000 -0.680000 0.000000
-0.990000 -0.670000 0.000000
-0.990000 -0.660000 0.000000
-0.990000 -0.650000 0.000000
-0.990000 -0.640000 0.000000
-0.990000 -0.630000 0.000000
-0.990000 -0.620000 0.000000
-0.990000 -0.610000 0.000000
-0.990000 -0.600000 0.000000
-0.990000 -0.590000 0.000000
-0.990000 -0.580000 0.000000
-0.990000 -0.570000 0.000000
-0.990000 -0.560000 0.000000
-0.990000 -0.550000 0.000000
-0.990000 -0.540000 0.000000
-0.990000 -0.530000 0.000000
-0.990000 -0.520000 0.000000
-0.990000 -0.510000 0.000000
-0.990000 -0.500000 0.000000
-0.990000 -0.490000 0.000000
-0.990000 -0.480000 0.000000
-0.990000 -0.470000 0.000000
-0.990000 -0.460000 0.000000
-0.990000 -0.450000 0.000000
-0.990000 -0.440000 0.000000
-0.990000 -0.430000 0.000000
-0.990000 -0.420000 0.000000
-0.990000 -0.410000 0.000000
-0.990000 -0.400000 0.000000
-0.990000 -0.390000 0.000000
-0.990000 -0.380000 0.000000
-0.990000 -0.370000 0.000000
-0.990000 -0.360000 0.000000
-0.990000 -0.350000 0.000000
-0.990000 -0.340000 0.000000
-0.990000 -0.330000 0.000000
-0.990000 -0.320000 0.000000
-0.990000 -0.310000 0.000000
-0.990000 -0.300000 0.000000
-0.990000 -0.290000 0.000000
-0.990000 -0.280000 0.000000
-0.990000 -0.270000 0.000000
-0.990000 -0.260000 0.000000
-0.990000 -0.250000 0.000000
-0.990000 -0.240000 0.000000
-0.990000 -0.230000 0.000000
-0.990000 -0.220000 0.000000
-0.990000 -0.210000 0.000000
-0.990000 -0.200000 0.000000
-0.990000 -0.190000 0.000000
-0.990000 -0.180000 0.000000
-0.990000 -0.170000 0.000000
-0.990000 -0.160000 0.000000
-0.990000 -0.150000 0.000000
-0.990000 -0.140000 0.000000
-0.990000 -0.130000 0.000000
-0.990000 -0.120000 0.000000
-0.990000 -0.110000 0.000000
-0.990000 -0.100000 0.000000
-0.990000 -0.090000 0.000000
-0.990000 -0.080000 0.000000
-0.990000 -0.070000 0.000000
-0.990000 -0.060000 0.000000
-0.990000 -0.050000 0.000000
-0.990000 -0.040000 0.000000
-0.990000 -0.030000 0.000000
-0.990000 -0.020000 0.000000
-0.990000 -0.010000 0.000000
-0.990000 0.000000 0.000000
-0.990000 0.010000 0.000000
-0.990000 0.020000 0.000000
-0.990000 0.030000 0.000000
-0.990000 0.040000 0.000000
-0.990000 0.050000 0.000000
-0.990000 0.060000 0.000000
-0.990000 0.070000 0.000000
-0.990000 0.080000 0.000000
-0.990000 0.090000 0.000000
-0.990000 0.100000 0.000000
-0.990000 0.110000 0.000000
-0.990000 0.120000 0.000000
-0.990000 0.130000 0.000000
-0.990000 0.140000 0.000000
-0.990000 0.150000 0.000000
-0.990000 0.160000 0.000000
-0.990000 0.170000 0.000000
-0.990000 0.180000 0.000000
-0.990000 0.190000 0.000000
-0.990000 0.200000 0.000000
-0.990000 0.210000 0.000000
-0.990000 0.220000 0.000000
-0.990000 0.230000 0.000000
-0.990000 0.240000 0.000000
-0.990000 0.250000 0.000000
-0.990000 0.260000 0.000000
-0.990000 0.270000 0.000000
-0.990000 0.280000 0.000000
-0.990000 0.290000 0.000000
-0.990000 0.300000 0.000000
-0.990000 0.310000 0.000000
-0.990000 0.320000 0.000000
-0.990000 0.330000 0.000000
-0.990000 0.340000 0.000000
-0.990000 0.350000 0.000000
-0.990000 0.360000 0.000000
-0.990000 0.370000 0.000000
-0.990000 0.380000 0.000000
-0.990000 0.390000 0.000000
-0.990000 0.400000 0.000000
-0.990000 0.410000 0.000000
-0.990000 0.420000 0.000000
-0.990000 0.430000 0.000000
[...]
POINT_DATA 40401
SCALARS phi FLOAT 1
LOOKUP_TABLE default
0.000000000000
0.000000000000
0.000000000000
0.000000000000
0.000000000000
0.000000000000
0.000000000000
0.000000000000
0.000000000000
0.000000000000
0.000000000000
0.000000000000
0.000000000000
0.000000000000
0.000000000000
0.000000000000
0.000000000000
0.000000000000
0.000000000000
0.000000000000
0.000000000000
0.000000000000
0.000000000000
0.000000000000
0.000000000000
0.000000000000
0.000000000000
0.000000000000
0.000000000000
0.000000000000
0.000000000000
0.000000000000
0.000000000000
0.000000000000
0.000000000000
0.000000000000
0.000000000000
0.000000000000
0.000000000000
0.000000000000
0.000000000000
0.000000000000
0.000000000000
0.000000000000
0.000000000000
0.000000000000
0.000000000000
0.000000000000
0.000000000000
0.000000000000
0.000000000000
0.000000000000
0.000000000000
0.000000000000
0.000000000000
0.000000000000
0.000000000000
0.000000000000
0.000000000000
0.000000000000
0.000000000000
0.000000000000
0.000000000000
0.000000000000
0.000000000000
0.000000000000
0.000000000000
0.000000000000
0.000000000000
0.000000000000
0.000000000000
0.000000000000
0.000000000000
0.000000000000
0.000000000000
0.000000000000
0.000000000000
0.000000000000
0.000000000000
0.000000000000
0.000000000000
0.000000000000
0.000000000000
0.000000000000
0.000000000000
0.000000000000
0.000000000000
0.000000000000
0.000000000000
0.000000000000
0.000000000000
0.000000000000
0.000000000000
0.000000000000
0.000000000000
0.000000000000
0.000000000000
0.000000000000
0.000000000000
0.000000000000
0.000000000000
0.000000000000
0.000000000000
0.000000000000
0.000000000000
0.000000000000
0.000000000000
0.000000000000
0.000000000000
0.000000000000
0.000000000000
0.000000000000
0.000000000000
0.000000000000
0.000000000000
0.000000000000
0.000000000000
0.000000000000
0.000000000000
0.000000000000
0.000000000000
0.000000000000
0.000000000000
0.000000000000
0.000000000000
0.000000000000
0.000000000000
0.000000000000
0.000000000000
0.000000000000
0.000000000000
0.000000000000
0.000000000000
0.000000000000
0.000000000000
0.000000000000
0.000000000000
0.000000000000
0.000000000000
0.000000000000
0.000000000000
0.000000000000
0.000000000000
0.000000000000
0.000000000000
0.000000000000
0.000000000000
0.000000000000
0.000000000000
0.000000000000
0.000000000000
0.000000000000
0.000000000000
0.000000000000
0.000000000000
0.000000000000
0.000000000000
0.000000000000
0.000000000000
0.000000000000
0.000000000000
0.000000000000
0.000000000000
0.000000000000
0.000000000000
0.000000000000
0.000000000000
0.000000000000
0.000000000000
0.000000000000
0.000000000000
0.000000000000
0.000000000000
0.000000000000
0.000000000000
0.000000000000
0.000000000000
0.000000000000
0.000000000000
0.000000000000
0.000000000000
0.000000000000
0.000000000000
0.000000000000
0.000000000000
0.000000000000
0.000000000000
0.000000000000
0.000000000000
0.000000000000
0.000000000000
0.000000000000
0.000000000000
0.000000000000
0.000000000000
0.000000000000
0.000000000000
0.000000000000
0.000000000000
0.000000000000
0.000000000000
0.000000000000
-0.000000000000
0.000000000035
0.000000000748
-0.000000017549
0.000000178239
-0.000001225604
0.000006532719
-0.000028842646
0.000109733104
-0.000369326739
0.001120437721
-0.003107110833
0.007962369927
-0.019020155328
0.042652700226
-0.090321919541
0.181512438556
-0.347635214920
0.636841050590
-1.119462801214
1.893533237575
-3.089543271829
4.873371704118
-7.446200396524
11.040289582580
-15.909766402075
22.316078871576
-30.508446225554
40.700410671715
-53.044348938549
67.606405878372
-84.344649524492
103.093234754461
-123.554970739699
145.303945688223
-167.798858176288
190.406568087667
-212.434264067358
233.167697527943
-251.912278048254
268.033539348084
-280.993592711078
290.380655335990
-295.929498352162
297.531595673122
-295.234749669442
289.232906458359
-279.847655508444
267.503468004845
-252.699033144668
235.977102012945
-217.895074232056
198.998212960752
-179.796909978130
160.748907539159
-142.246874890644
124.611281209085
-108.088135605495
92.850896264893
-79.005688635121
66.598909585752
-55.626315415986
46.042776711951
-37.772011045870
30.715755071745
-24.761993170826
19.792006700179
-15.686136530355
12.328256360682
-9.609033188699
7.428104942212
-5.695336253931
4.331325431397
-3.267333112928
2.444790149073
-1.814522769804
1.335810346781
-0.975367590740
0.706320683201
-0.507226831618
0.361169715685
-0.254949490459
0.178375349571
-0.123660845038
0.084916809764
-0.057733389100
0.038840917197
-0.025838767109
0.016981510705
-0.011012457882
0.007035679742
-0.004418789689
0.002719942072
-0.001633632680
0.000950903306
-0.000530441519
0.000277820788
-0.000130750554
0.000048710000
-0.000005761148
-0.000014564667
0.000022456299
-0.000023851972
0.000022121112
-0.000019125152
0.000015844877
-0.000012759646
0.000010070537
-0.000007830743
0.000006020153
-0.000004586927
0.000003469769
-0.000002609112
0.000001952087
-0.000001454153
0.000001079019
-0.000000797788
0.000000587832
-0.000000431655
0.000000315856
-0.000000230250
0.000000167143
-0.000000120751
0.000000086744
-0.000000061889
0.000000043784
-0.000000030645
0.000000021151
-0.000000014325
0.000000009449
-0.000000005992
0.000000003565
-0.000000001882
0.000000000735
0.000000000029
-0.000000000521
0.000000000822
-0.000000000989
0.000000001065
-0.000000001080
0.000000001055
-0.000000001006
0.000000000942
-0.000000000871
0.000000000798
-0.000000000726
0.000000000657
-0.000000000592
0.000000000532
-0.000000000478
0.000000000428
-0.000000000383
0.000000000343
-0.000000000307
0.000000000275
-0.000000000247
0.000000000221
-0.000000000199
0.000000000179
-0.000000000161
0.000000000145
-0.000000000131
0.000000000119
-0.000000000108
0.000000000098
-0.000000000090
0.000000000082
-0.000000000075
0.000000000069
-0.000000000063
0.000000000059
-0.000000000054
0.000000000050
-0.000000000047
0.000000000044
-0.000000000041
0.000000000039
-0.000000000036
0.000000000034
-0.000000000033
0.000000000031
-0.000000000029
0.000000000028
-0.000000000027
0.000000000026
-0.000000000025
0.000000000024
-0.000000000024
0.000000000023
-0.000000000023
0.000000000022
-0.000000000022
0.000000000022
-0.000000000022
0.000000000021
-0.000000000021
0.000000000021
-0.000000000023
0.000000000000
0.000000000000
0.000000000000
0.000000000040
0.000000000383
-0.000000025890
0.000000371482
-0.000003193741
0.000020142828
-0.000101888147
0.000434698753
-0.001615760138
0.005351533969
-0.016057914912
0.044209409573
-0.112796619228
0.268868167074
-0.602742620330
1.277879273263
-2.574321111047
4.947768626026
-9.104462489890
16.089054385640
-27.378687850900
44.972063496976
-71.458093123591
110.045825817451
-164.536654049373
239.222178234528
-338.696898276710
467.583890289135
-630.182940488640
830.062789792271
-1069.630362440943
1349.718213705005
-1669.235316854805
2024.924689590129
-2411.264011023682
2820.532954674787
-3243.054904894284
3667.603045218953
-4081.943767689563
4473.476109611756
-4829.916212009101
5139.971684543396
-5393.952547599893
5584.272625573395
-5705.806761273802
5756.083444908037
-5735.307645911883
5646.223101424057
-5493.835615934106
5285.028038146442
-5028.102960889707
4732.290774967039
-4407.258851124583
4062.652989072438
-3707.695706237129
3350.858347261486
-2999.616231990730
2660.288843932112
-2337.960926526130
2036.475629652891
-1758.487665017293
1505.562748458759
-1278.309262707574
1076.528814371336
-899.373891981541
745.502862470318
-613.224801597808
500.628914166351
-405.695391115375
326.386357700634
-260.717026903265
206.808266037119
-162.922527315609
127.485523555089
-99.096200705516
76.527527552139
-58.720446938457
44.773064146223
-33.926830588255
25.551149524441
-19.127510708390
14.233969886756
-10.530536884852
7.745826856830
-5.665163116969
4.120193835674
-2.979994039941
2.143563208296
-1.533591528492
1.091349126671
-0.772547403832
0.544025891115
-0.381128399339
0.265646076586
-0.184220355891
0.127114299427
-0.087275616007
0.059628097358
-0.040540107654
0.027428984427
-0.018635228443
0.012681992049
-0.008650394236
0.005912680078
-0.004049787508
0.002779393821
-0.001911228426
0.001316707034
-0.000908752792
0.000628266276
-0.000435050094
0.000301704871
-0.000209515295
0.000145671241
-0.000101386651
0.000070623405
-0.000049223762
0.000034319315
-0.000023927499
0.000016675560
-0.000011611342
0.000008073331
-0.000005601212
0.000003874205
-0.000002668455
0.000001827554
-0.000001242094
0.000000835470
-0.000000554002
0.000000360052
-0.000000227219
0.000000136983
-0.000000076357
0.000000036235
-0.000000010243
-0.000000006076
0.000000015831
-0.000000021183
0.000000023631
-0.000000024206
0.000000023613
-0.000000022331
0.000000020680
-0.000000018869
0.000000017034
-0.000000015258
0.000000013588
-0.000000012051
0.000000010656
-0.000000009403
0.000000008286
-0.000000007298
0.000000006426
-0.000000005659
0.000000004987
-0.000000004399
0.000000003885
-0.000000003435
0.000000003043
-0.000000002700
0.000000002400
-0.000000002138
0.000000001909
-0.000000001708
0.000000001532
-0.000000001377
0.000000001242
-0.000000001122
0.000000001017
-0.000000000924
0.000000000842
-0.000000000770
0.000000000706
-0.000000000649
0.000000000598
-0.000000000553
0.000000000514
-0.000000000478
0.000000000446
-0.000000000418
0.000000000393
-0.000000000371
0.000000000351
-0.000000000333
0.000000000317
-0.000000000303
0.000000000290
-0.000000000280
0.000000000270
-0.000000000261
0.000000000254
-0.000000000248
0.000000000243
-0.000000000238
0.000000000235
-0.000000000233
0.000000000231
-0.000000000229
-0.000000000019
0.000000000000
0.000000000000
-0.000000000035
-0.000000000379
0.000000023844
-0.000000332902
0.000002796624
-0.000017266165
0.000085590545
-0.000358154051
0.001306524290
-0.004249247343
0.012526172675
-0.033893660165
0.085022744530
-0.199324049575
0.439609603633
-0.917198241561
1.818813904526
-3.441859307654
6.237278400867
-10.857277893775
18.202853242798
-29.463724502169
46.141436213617
-70.045568892133
103.253734479351
-148.028571406090
206.689296103080
-281.441125270929
374.172335262849
-486.234908802650
618.229592275042
-769.818817823637
939.590695501615
-1124.993939985745
1322.357434335043
-1526.999869959667
1733.425592923909
-1935.593651345869
2127.239264887648
-2302.221499218250
2454.868448249816
-2580.291902863863
2674.647089567998
-2735.319008222411
2761.024348637323
-2751.825974322801
2709.064606928152
-2635.218848447889
2533.709485317940
-2408.666837260181
2264.680713570489
-2106.551515472499
1939.058536966670
-1766.758027204910
1593.819571663347
-1423.905282399602
1260.092538598916
-1104.837864142016
959.977134294826
-826.755728211934
705.881457645803
-597.593008055829
501.737087051438
-417.848328915479
345.227096068840
-283.011507899729
230.241198908104
-185.911375950195
149.016652974269
-118.584862832740
93.701574003898
-73.526386873748
57.302272509019
-44.359275729530
34.113864886957
-26.065102998456
19.788665338437
-14.929559276810
11.194230092269
-8.342573853309
6.180233072523
-4.551426908559
3.332466605975
-2.426027983472
1.756194126537
-1.264240276084
0.905106188309
-0.644485949695
0.456458574522
-0.321582256812
0.225378870618
-0.157141601565
0.109006222589
-0.075234607695
0.051666999017
-0.035306916995
0.024009213413
-0.016247518336
0.010942215877
-0.007334146534
0.005030387803
-0.003502565397
0.002478020958
-0.001777680948
0.001290919919
-0.000947080950
0.000700648869
-0.000521770148
0.000390526642
-0.000293383621
0.000220977196
-0.000166717005
0.000125891531
-0.000095085752
0.000071795258
-0.000054165696
0.000040813468
-0.000030700067
0.000023042511
-0.000017248546
0.000012869165
-0.000009563446
0.000007072306
-0.000005198771
0.000003793078
-0.000002741384
0.000001957193
-0.000001374829
0.000000944460
-0.000000628317
0.000000397804
-0.000000231296
0.000000112464
-0.000000028998
-0.000000028363
0.000000066573
-0.000000090841
0.000000105055
-0.000000112109
0.000000114145
-0.000000112744
0.000000109063
-0.000000103943
0.000000097988
-0.000000091628
0.000000085164
-0.000000078799
0.000000072669
-0.000000066858
0.000000061414
-0.000000056358
0.000000051697
-0.000000047421
0.000000043516
-0.000000039961
0.000000036734
-0.000000033809
0.000000031163
-0.000000028773
0.000000026615
-0.000000024668
0.000000022914
-0.000000021333
0.000000019910
-0.000000018629
0.000000017477
-0.000000016441
0.000000015511
-0.000000014676
0.000000013929
-0.000000013260
0.000000012664
-0.000000012135
0.000000011666
-0.000000011253
0.000000010893
-0.000000010582
0.000000010317
-0.000000010095
0.000000009914
-0.000000009774
0.000000009673
-0.000000009610
0.000000009585
-0.000000009598
0.000000009650
-0.000000009742
0.000000009876
-0.000000010054
0.000000010278
-0.000000010552
0.000000010880
-0.000000011267
0.000000011720
-0.000000012245
0.000000012851
-0.000000013548
0.000000014347
-0.000000000429
0.000000000000
0.000000000000
0.000000000035
0.000000000373
-0.000000022058
0.000000299671
-0.000002459533
0.000014862127
-0.000072186937
0.000296210876
-0.001060292916
0.003385569014
-0.009802851907
0.026064362291
-0.064271829963
0.148166483784
-0.321438459671
0.659871756304
-1.287853478375
2.399171917163
-4.281091594896
7.339494301346
-12.121582073822
19.331508014845
-29.833639605641
44.638257799822
-64.865555252704
91.685863279573
-126.236956380902
169.522703928473
-222.300756003561
284.969790101904
-357.468570053452
439.199283597786
-528.986161716060
625.077338763782
-725.193642784549
826.623065448847
-926.354713632780
1021.241750603330
-1108.179748380705
1184.285360489499
-1247.060419332507
1294.528360857652
-1325.332973173025
1338.793405049129
-1334.913638540346
1314.348722050481
-1278.333547685590
1228.582534089241
-1167.170082588495
1096.402093968999
-1018.688273199533
936.423608701974
-851.885542254058
767.151210030258
-684.036980288060
604.060541375994
-528.424150643577
458.016424770367
-393.429261846276
334.986114186811
-282.777822232572
236.702496481390
-196.506410183352
161.823456463415
-132.211355347128
107.183409068836
-86.235154756623
68.865725123338
-54.594087652636
42.970590205126
-33.584403844293
26.067535379686
-20.096098822477
15.389503412473
-11.708151854705
8.850159594505
-6.647515472636
4.962014322428
-3.681208807470
2.714554610276
-1.989861698402
1.450115155958
-1.050691345724
0.756967722251
-0.542305896051
0.386375905915
-0.273783503602
0.192960163156
-0.135276275148
0.094340579168
-0.065452550186
0.045178608141
-0.031027256747
0.021202306270
-0.014417032432
0.009755386338
-0.006569171437
0.004402454300
-0.002936410527
0.001949372121
-0.001348313974
0.000958781744
-0.000701382632
0.000525398256
-0.000401396686
0.000311438914
-0.000244488226
0.000193572700
-0.000154172905
0.000123271038
-0.000098789337
0.000079253072
-0.000063585252
0.000050979128
-0.000040817237
0.000032618647
-0.000026003629
0.000020669255
-0.000016372058
0.000012915342
-0.000010139647
0.000007915438
-0.000006137376
0.000004719779
-0.000003592972
0.000002700342
-0.000001995937
0.000001442504
-0.000001009889
0.000000673723
-0.000000414345
0.000000215920
-0.000000065721
-0.000000046461
0.000000128800
-0.000000187823
0.000000228732
-0.000000255662
0.000000271888
-0.000000280000
0.000000282034
-0.000000279591
0.000000273917
-0.000000265983
0.000000256536
-0.000000246150
0.000000235259
-0.000000224192
0.000000213190
-0.000000202428
0.000000192032
-0.000000182085
0.000000172644
-0.000000163738
0.000000155384
-0.000000147582
0.000000140325
-0.000000133600
0.000000127388
-0.000000121670
0.000000116422
-0.000000111622
0.000000107247
-0.000000103276
0.000000099689
-0.000000096465
0.000000093588
-0.000000091041
0.000000088810
-0.000000086883
0.000000085250
-0.000000083903
0.000000082835
-0.000000082042
0.000000081523
-0.000000081279
0.000000081312
-0.000000081628
0.000000082236
-0.000000083148
0.000000084377
-0.000000085944
0.000000087871
-0.000000090186
0.000000092922
-0.000000096119
0.000000099822
-0.000000104087
0.000000108977
-0.000000114569
0.000000120950
-0.000000128225
0.000000136517
-0.000000145970
0.000000156755
-0.000000169072
0.000000183162
-0.000000199306
0.000000009511
0.000000000000
0.000000000000
-0.000000000034
-0.000000000368
0.000000020500
-0.000000270964
0.000002172463
-0.000012846332
0.000061126684
-0.000245920176
0.000863608223
-0.002706782647
0.007696759448
-0.020105599952
0.048726855387
-0.110439558388
0.235633371622
-0.475871687056
0.913916056797
-1.675795355647
2.943994737550
-4.970135972144
8.084850040946
-12.702070657800
19.314874684672
-28.480396535943
40.792304724550
-56.840798348429
77.161893108354
-102.179657561169
132.146714519158
-167.089429069878
206.764520391818
-250.633234974949
297.857727496955
-347.322084290435
397.677785286749
-447.410696021999
494.924282871066
-538.631971198681
577.050636050300
-608.887217832352
633.111346709186
-649.008477894114
656.210141339304
-654.700209158677
644.798301867859
-627.123351077813
602.541740447287
-572.105268162276
536.984403170436
-498.402003284584
457.571936085316
-415.646031892810
373.671647534820
-332.560964493075
293.072095002333
-255.801202520874
221.184202369116
-189.506206366847
160.916698166855
-135.448441220902
113.038285507716
-93.548304982200
76.786019675161
-62.522794894870
50.509833768077
-40.491466312827
32.215675148617
-25.441979365499
19.946924687030
-15.527504952726
12.002874886102
-9.214716107710
7.026596481165
-5.322625493017
4.005662579484
-2.995286774859
2.225688925982
-1.643604778674
1.206370106503
-0.880148400009
0.638357457517
-0.460303045390
0.330014878081
-0.235271633171
0.166796671921
-0.117603746792
0.082471507954
-0.057526455478
0.039915630559
-0.027552422110
0.018921110849
-0.012927993816
0.008789008214
-0.005945636925
0.004002498908
-0.002681401950
0.001787775671
-0.001186331527
0.000783540796
-0.000515109058
0.000353166165
-0.000249648643
0.000182538132
-0.000137735307
0.000106982665
-0.000085210417
0.000069293572
-0.000057275585
0.000047918206
-0.000040428421
0.000034291935
-0.000029170061
0.000024835357
-0.000021131168
0.000017946126
-0.000015198061
0.000012823868
-0.000010773147
0.000009004226
-0.000007481680
0.000006174781
-0.000005056520
0.000004102982
-0.000003292915
0.000002607430
-0.000002029765
0.000001545086
-0.000001140313
0.000000803956
-0.000000525963
0.000000297579
-0.000000111204
-0.000000039729
0.000000160873
-0.000000257081
0.000000332500
-0.000000390664
0.000000434573
-0.000000466768
0.000000489393
-0.000000504251
0.000000512856
-0.000000516471
0.000000516153
-0.000000512775
0.000000507065
-0.000000499620
0.000000490932
-0.000000481406
0.000000471370
-0.000000461090
0.000000450784
-0.000000440624
0.000000430751
-0.000000421276
0.000000412287
-0.000000403854
0.000000396034
-0.000000388870
0.000000382398
-0.000000376649
0.000000371649
-0.000000367419
0.000000363983
-0.000000361363
0.000000359584
-0.000000358670
0.000000358654
-0.000000359570
0.000000361459
-0.000000364369
0.000000368357
-0.000000373488
0.000000379838
-0.000000387497
0.000000396569
-0.000000407174
0.000000419453
-0.000000433567
0.000000449705
-0.000000468084
0.000000488959
-0.000000512623
0.000000539417
-0.000000569741
0.000000604058
-0.000000642911
0.000000686934
-0.000000736872
0.000000793601
-0.000000858153
0.000000931747
-0.000001015828
0.000001112112
-0.000001222643
0.000001349862
-0.000001496694
0.000001666653
-0.000000093347
0.000000000000
0.000000000000
0.000000000033
0.000000000364
-0.000000019136
0.000000246089
-0.000001927167
0.000011150284
-0.000051969048
0.000204954145
-0.000705994267
0.002171653387
-0.006063167610
0.015557636111
-0.037050451574
0.082546434291
-0.173179898033
0.344006094270
-0.650006948357
1.172951749271
-2.028377158899
3.371562030787
-5.401059186638
8.358207285625
-12.521167497683
18.192460543555
-25.679710880676
35.270261182117
-47.201366644960
61.628641446658
-78.596129108644
98.011655044074
-119.630905578035
143.052957759389
-167.728838820569
192.983276516902
-218.048310982062
242.106085333550
-264.337101661875
283.969653005440
-300.326080330666
312.861939925146
-321.195016687601
325.122249135312
-324.623884342958
319.855397750048
-311.128758466093
298.885397874151
-283.663696060516
266.063930509965