# vtk DataFile Version 2.0
TITLE = "Quad data"
ASCII
DATASET STRUCTURED_GRID
DIMENSIONS 201 201 1
POINTS 40401 FLOAT
-1.000000 -1.000000 0.000000
-1.000000 -0.990000 0.000000
-1.000000 -0.980000 0.000000
-1.000000 -0.970000 0.000000
-1.000000 -0.960000 0.000000
-1.000000 -0.950000 0.000000
-1.000000 -0.940000 0.000000
-1.000000 -0.930000 0.000000
-1.000000 -0.920000 0.000000
-1.000000 -0.910000 0.000000
-1.000000 -0.900000 0.000000
-1.000000 -0.890000 0.000000
-1.000000 -0.880000 0.000000
-1.000000 -0.870000 0.000000
-1.000000 -0.860000 0.000000
-1.000000 -0.850000 0.000000
-1.000000 -0.840000 0.000000
-1.000000 -0.830000 0.000000
-1.000000 -0.820000 0.000000
-1.000000 -0.810000 0.000000
-1.000000 -0.800000 0.000000
-1.000000 -0.790000 0.000000
-1.000000 -0.780000 0.000000
-1.000000 -0.770000 0.000000
-1.000000 -0.760000 0.000000
-1.000000 -0.750000 0.000000
-1.000000 -0.740000 0.000000
-1.000000 -0.730000 0.000000
-1.000000 -0.720000 0.000000
-1.000000 -0.710000 0.000000
-1.000000 -0.700000 0.000000
-1.000000 -0.690000 0.000000
-1.000000 -0.680000 0.000000
-1.000000 -0.670000 0.000000
-1.000000 -0.660000 0.000000
-1.000000 -0.650000 0.000000
-1.000000 -0.640000 0.000000
-1.000000 -0.630000 0.000000
-1.000000 -0.620000 0.000000
-1.000000 -0.610000 0.000000
-1.000000 -0.600000 0.000000
-1.000000 -0.590000 0.000000
-1.000000 -0.580000 0.000000
-1.000000 -0.570000 0.000000
-1.000000 -0.560000 0.000000
-1.000000 -0.550000 0.000000
-1.000000 -0.540000 0.000000
-1.000000 -0.530000 0.000000
-1.000000 -0.520000 0.000000
-1.000000 -0.510000 0.000000
-1.000000 -0.500000 0.000000
-1.000000 -0.490000 0.000000
-1.000000 -0.480000 0.000000
-1.000000 -0.470000 0.000000
-1.000000 -0.460000 0.000000
-1.000000 -0.450000 0.000000
-1.000000 -0.440000 0.000000
-1.000000 -0.430000 0.000000
-1.000000 -0.420000 0.000000
-1.000000 -0.410000 0.000000
-1.000000 -0.400000 0.000000
-1.000000 -0.390000 0.000000
-1.000000 -0.380000 0.000000
-1.000000 -0.370000 0.000000
-1.000000 -0.360000 0.000000
-1.000000 -0.350000 0.000000
-1.000000 -0.340000 0.000000
-1.000000 -0.330000 0.000000
-1.000000 -0.320000 0.000000
-1.000000 -0.310000 0.000000
-1.000000 -0.300000 0.000000
-1.000000 -0.290000 0.000000
-1.000000 -0.280000 0.000000
-1.000000 -0.270000 0.000000
-1.000000 -0.260000 0.000000
-1.000000 -0.250000 0.000000
-1.000000 -0.240000 0.000000
-1.000000 -0.230000 0.000000
-1.000000 -0.220000 0.000000
-1.000000 -0.210000 0.000000
-1.000000 -0.200000 0.000000
-1.000000 -0.190000 0.000000
-1.000000 -0.180000 0.000000
-1.000000 -0.170000 0.000000
-1.000000 -0.160000 0.000000
-1.000000 -0.150000 0.000000
-1.000000 -0.140000 0.000000
-1.000000 -0.130000 0.000000
-1.000000 -0.120000 0.000000
-1.000000 -0.110000 0.000000
-1.000000 -0.100000 0.000000
-1.000000 -0.090000 0.000000
-1.000000 -0.080000 0.000000
-1.000000 -0.070000 0.000000
-1.000000 -0.060000 0.000000
-1.000000 -0.050000 0.000000
-1.000000 -0.040000 0.000000
-1.000000 -0.030000 0.000000
-1.000000 -0.020000 0.000000
-1.000000 -0.010000 0.000000
-1.000000 0.000000 0.000000
-1.000000 0.010000 0.000000
-1.000000 0.020000 0.000000
-1.000000 0.030000 0.000000
-1.000000 0.040000 0.000000
-1.000000 0.050000 0.000000
-1.000000 0.060000 0.000000
-1.000000 0.070000 0.000000
-1.000000 0.080000 0.000000
-1.000000 0.090000 0.000000
-1.000000 0.100000 0.000000
-1.000000 0.110000 0.000000
-1.000000 0.120000 0.000000
-1.000000 0.130000 0.000000
-1.000000 0.140000 0.000000
-1.000000 0.150000 0.000000
-1.000000 0.160000 0.000000
-1.000000 0.170000 0.000000
-1.000000 0.180000 0.000000
-1.000000 0.190000 0.000000
-1.000000 0.200000 0.000000
-1.000000 0.210000 0.000000
-1.000000 0.220000 0.000000
-1.000000 0.230000 0.000000
-1.000000 0.240000 0.000000
-1.000000 0.250000 0.000000
-1.000000 0.260000 0.000000
-1.000000 0.270000 0.000000
-1.000000 0.280000 0.000000
-1.000000 0.290000 0.000000
-1.000000 0.300000 0.000000
-1.000000 0.310000 0.000000
-1.000000 0.320000 0.000000
-1.000000 0.330000 0.000000
-1.000000 0.340000 0.000000
-1.000000 0.350000 0.000000
-1.000000 0.360000 0.000000
-1.000000 0.370000 0.000000
-1.000000 0.380000 0.000000
-1.000000 0.390000 0.000000
-1.000000 0.400000 0.000000
-1.000000 0.410000 0.000000
-1.000000 0.420000 0.000000
-1.000000 0.430000 0.000000
-1.000000 0.440000 0.000000
-1.000000 0.450000 0.000000
-1.000000 0.460000 0.000000
-1.000000 0.470000 0.000000
-1.000000 0.480000 0.000000
-1.000000 0.490000 0.000000
-1.000000 0.500000 0.000000
-1.000000 0.510000 0.000000
-1.000000 0.520000 0.000000
-1.000000 0.530000 0.000000
-1.000000 0.540000 0.000000
-1.000000 0.550000 0.000000
-1.000000 0.560000 0.000000
-1.000000 0.570000 0.000000
-1.000000 0.580000 0.000000
-1.000000 0.590000 0.000000
-1.000000 0.600000 0.000000
-1.000000 0.610000 0.000000
-1.000000 0.620000 0.000000
-1.000000 0.630000 0.000000
-1.000000 0.640000 0.000000
-1.000000 0.650000 0.000000
-1.000000 0.660000 0.000000
-1.000000 0.670000 0.000000
-1.000000 0.680000 0.000000
-1.000000 0.690000 0.000000
-1.000000 0.700000 0.000000
-1.000000 0.710000 0.000000
-1.000000 0.720000 0.000000
-1.000000 0.730000 0.000000
-1.000000 0.740000 0.000000
-1.000000 0.750000 0.000000
-1.000000 0.760000 0.000000
-1.000000 0.770000 0.000000
-1.000000 0.780000 0.000000
-1.000000 0.790000 0.000000
-1.000000 0.800000 0.000000
-1.000000 0.810000 0.000000
-1.000000 0.820000 0.000000
-1.000000 0.830000 0.000000
-1.000000 0.840000 0.000000
-1.000000 0.850000 0.000000
-1.000000 0.860000 0.000000
-1.000000 0.870000 0.000000
-1.000000 0.880000 0.000000
-1.000000 0.890000 0.000000
-1.000000 0.900000 0.000000
-1.000000 0.910000 0.000000
-1.000000 0.920000 0.000000
-1.000000 0.930000 0.000000
-1.000000 0.940000 0.000000
-1.000000 0.950000 0.000000
-1.000000 0.960000 0.000000
-1.000000 0.970000 0.000000
-1.000000 0.980000 0.000000
-1.000000 0.990000 0.000000
-1.000000 1.000000 0.000000
-0.990000 -1.000000 0.000000
-0.990000 -0.990000 0.000000
-0.990000 -0.980000 0.000000
-0.990000 -0.970000 0.000000
-0.990000 -0.960000 0.000000
-0.990000 -0.950000 0.000000
-0.990000 -0.940000 0.000000
-0.990000 -0.930000 0.000000
-0.990000 -0.920000 0.000000
-0.990000 -0.910000 0.000000
-0.990000 -0.900000 0.000000
-0.990000 -0.890000 0.000000
-0.990000 -0.880000 0.000000
-0.990000 -0.870000 0.000000
-0.990000 -0.860000 0.000000
-0.990000 -0.850000 0.000000
-0.990000 -0.840000 0.000000
-0.990000 -0.830000 0.000000
-0.990000 -0.820000 0.000000
-0.990000 -0.810000 0.000000
-0.990000 -0.800000 0.000000
-0.990000 -0.790000 0.000000
-0.990000 -0.780000 0.000000
-0.990000 -0.770000 0.000000
-0.990000 -0.760000 0.000000
-0.990000 -0.750000 0.000000
-0.990000 -0.740000 0.000000
-0.990000 -0.730000 0.000000
-0.990000 -0.720000 0.000000
-0.990000 -0.710000 0.000000
-0.990000 -0.700000 0.000000
-0.990000 -0.690000 0.000000
-0.990000 -0.680000 0.000000
-0.990000 -0.670000 0.000000
-0.990000 -0.660000 0.000000
-0.990000 -0.650000 0.000000
-0.990000 -0.640000 0.000000
-0.990000 -0.630000 0.000000
-0.990000 -0.620000 0.000000
-0.990000 -0.610000 0.000000
-0.990000 -0.600000 0.000000
-0.990000 -0.590000 0.000000
-0.990000 -0.580000 0.000000
-0.990000 -0.570000 0.000000
-0.990000 -0.560000 0.000000
-0.990000 -0.550000 0.000000
-0.990000 -0.540000 0.000000
-0.990000 -0.530000 0.000000
-0.990000 -0.520000 0.000000
-0.990000 -0.510000 0.000000
-0.990000 -0.500000 0.000000
-0.990000 -0.490000 0.000000
-0.990000 -0.480000 0.000000
-0.990000 -0.470000 0.000000
-0.990000 -0.460000 0.000000
-0.990000 -0.450000 0.000000
-0.990000 -0.440000 0.000000
-0.990000 -0.430000 0.000000
-0.990000 -0.420000 0.000000
-0.990000 -0.410000 0.000000
-0.990000 -0.400000 0.000000
-0.990000 -0.390000 0.000000
-0.990000 -0.380000 0.000000
-0.990000 -0.370000 0.000000
-0.990000 -0.360000 0.000000
-0.990000 -0.350000 0.000000
-0.990000 -0.340000 0.000000
-0.990000 -0.330000 0.000000
-0.990000 -0.320000 0.000000
-0.990000 -0.310000 0.000000
-0.990000 -0.300000 0.000000
-0.990000 -0.290000 0.000000
-0.990000 -0.280000 0.000000
-0.990000 -0.270000 0.000000
-0.990000 -0.260000 0.000000
-0.990000 -0.250000 0.000000
-0.990000 -0.240000 0.000000
-0.990000 -0.230000 0.000000
-0.990000 -0.220000 0.000000
-0.990000 -0.210000 0.000000
-0.990000 -0.200000 0.000000
-0.990000 -0.190000 0.000000
-0.990000 -0.180000 0.000000
-0.990000 -0.170000 0.000000
-0.990000 -0.160000 0.000000
-0.990000 -0.150000 0.000000
-0.990000 -0.140000 0.000000
-0.990000 -0.130000 0.000000
-0.990000 -0.120000 0.000000
-0.990000 -0.110000 0.000000
-0.990000 -0.100000 0.000000
-0.990000 -0.090000 0.000000
-0.990000 -0.080000 0.000000
-0.990000 -0.070000 0.000000
-0.990000 -0.060000 0.000000
-0.990000 -0.050000 0.000000
-0.990000 -0.040000 0.000000
-0.990000 -0.030000 0.000000
-0.990000 -0.020000 0.000000
-0.990000 -0.010000 0.000000
-0.990000 0.000000 0.000000
-0.990000 0.010000 0.000000
-0.990000 0.020000 0.000000
-0.990000 0.030000 0.000000
-0.990000 0.040000 0.000000
-0.990000 0.050000 0.000000
-0.990000 0.060000 0.000000
-0.990000 0.070000 0.000000
-0.990000 0.080000 0.000000
-0.990000 0.090000 0.000000
-0.990000 0.100000 0.000000
-0.990000 0.110000 0.000000
-0.990000 0.120000 0.000000
-0.990000 0.130000 0.000000
-0.990000 0.140000 0.000000
-0.990000 0.150000 0.000000
-0.990000 0.160000 0.000000
-0.990000 0.170000 0.000000
-0.990000 0.180000 0.000000
-0.990000 0.190000 0.000000
-0.990000 0.200000 0.000000
-0.990000 0.210000 0.000000
-0.990000 0.220000 0.000000
-0.990000 0.230000 0.000000
-0.990000 0.240000 0.000000
-0.990000 0.250000 0.000000
-0.990000 0.260000 0.000000
-0.990000 0.270000 0.000000
-0.990000 0.280000 0.000000
-0.990000 0.290000 0.000000
-0.990000 0.300000 0.000000
-0.990000 0.310000 0.000000
-0.990000 0.320000 0.000000
-0.990000 0.330000 0.000000
-0.990000 0.340000 0.000000
-0.990000 0.350000 0.000000
-0.990000 0.360000 0.000000
-0.990000 0.370000 0.000000
-0.990000 0.380000 0.000000
-0.990000 0.390000 0.000000
-0.990000 0.400000 0.000000
-0.990000 0.410000 0.000000
-0.990000 0.420000 0.000000
-0.990000 0.430000 0.000000
[...]
POINT_DATA 40401
SCALARS phi FLOAT 1
LOOKUP_TABLE default
0.000000000000
0.000000000000
0.000000000000
0.000000000000
0.000000000000
0.000000000000
0.000000000000
0.000000000000
0.000000000000
0.000000000000
0.000000000000
0.000000000000
0.000000000000
0.000000000000
0.000000000000
0.000000000000
0.000000000000
0.000000000000
0.000000000000
0.000000000000
0.000000000000
0.000000000000
0.000000000000
0.000000000000
0.000000000000
0.000000000000
0.000000000000
0.000000000000
0.000000000000
0.000000000000
0.000000000000
0.000000000000
0.000000000000
0.000000000000
0.000000000000
0.000000000000
0.000000000000
0.000000000000
0.000000000000
0.000000000000
0.000000000000
0.000000000000
0.000000000000
0.000000000000
0.000000000000
0.000000000000
0.000000000000
0.000000000000
0.000000000000
0.000000000000
0.000000000000
0.000000000000
0.000000000000
0.000000000000
0.000000000000
0.000000000000
0.000000000000
0.000000000000
0.000000000000
0.000000000000
0.000000000000
0.000000000000
0.000000000000
0.000000000000
0.000000000000
0.000000000000
0.000000000000
0.000000000000
0.000000000000
0.000000000000
0.000000000000
0.000000000000
0.000000000000
0.000000000000
0.000000000000
0.000000000000
0.000000000000
0.000000000000
0.000000000000
0.000000000000
0.000000000000
0.000000000000
0.000000000000
0.000000000000
0.000000000000
0.000000000000
0.000000000000
0.000000000000
0.000000000000
0.000000000000
0.000000000000
0.000000000000
0.000000000000
0.000000000000
0.000000000000
0.000000000000
0.000000000000
0.000000000000
0.000000000000
0.000000000000
0.000000000000
0.000000000000
0.000000000000
0.000000000000
0.000000000000
0.000000000000
0.000000000000
0.000000000000
0.000000000000
0.000000000000
0.000000000000
0.000000000000
0.000000000000
0.000000000000
0.000000000000
0.000000000000
0.000000000000
0.000000000000
0.000000000000
0.000000000000
0.000000000000
0.000000000000
0.000000000000
0.000000000000
0.000000000000
0.000000000000
0.000000000000
0.000000000000
0.000000000000
0.000000000000
0.000000000000
0.000000000000
0.000000000000
0.000000000000
0.000000000000
0.000000000000
0.000000000000
0.000000000000
0.000000000000
0.000000000000
0.000000000000
0.000000000000
0.000000000000
0.000000000000
0.000000000000
0.000000000000
0.000000000000
0.000000000000
0.000000000000
0.000000000000
0.000000000000
0.000000000000
0.000000000000
0.000000000000
0.000000000000
0.000000000000
0.000000000000
0.000000000000
0.000000000000
0.000000000000
0.000000000000
0.000000000000
0.000000000000
0.000000000000
0.000000000000
0.000000000000
0.000000000000
0.000000000000
0.000000000000
0.000000000000
0.000000000000
0.000000000000
0.000000000000
0.000000000000
0.000000000000
0.000000000000
0.000000000000
0.000000000000
0.000000000000
0.000000000000
0.000000000000
0.000000000000
0.000000000000
0.000000000000
0.000000000000
0.000000000000
0.000000000000
0.000000000000
0.000000000000
0.000000000000
0.000000000000
0.000000000000
0.000000000000
0.000000000000
0.000000000000
0.000000000000
0.000000000000
0.000000000000
0.000000000000
0.000000000000
0.000000000000
0.000000000000
-98892854362931952877568.000000000000
-38241522720769322145284096.000000000000
-733681867832421067295555584.000000000000
19355051302968427412136656896.000000000000
-210213063481558060508674785280.000000000000
1528613630566116048293085577216.000000000000
-8571784467603959433808037543936.000000000000
39688528361464094366540465438720.000000000000
-158002338238597549430675351797760.000000000000
555541108814371554908862320476160.000000000000
-1758373855091577315351717379833856.000000000000
5082121017371843161095883768987648.000000000000
-13561958129071377837557428527300608.000000000000
33711268279027575840825118132535296.000000000000
-78618972631432673601329824347979776.000000000000
173050609427885523379185467470643200.000000000000
-361325396601466352560015595228102656.000000000000
718735736443176847903626646649831424.000000000000
-1367083805448919125385009651819479040.000000000000
2494468748037306571947052032881328128.000000000000
-4378737322075681448439615112565751808.000000000000
7413036642819374614249962485533638656.000000000000
-12130778273841748179128861558717808640.000000000000
19226210778797332991998481741274677248.000000000000
-29565932397844743300589676440231870464.000000000000
44186306679735695368608051640764727296.000000000000
-64272091456304423244626813163958960128.000000000000
91112790117470302580410013929061744640.000000000000
-126035286631004817189433672786742607872.000000000000
170314077558249275903111515226110951424.000000000000
-225063557237525313265735936329662857216.000000000000
291119920698585030904124522609590140928.000000000000
-368922843507203367150803997669470502912.000000000000
458408726139960637812982518912869466112.000000000000
-558927608344520775392390735568616554496.000000000000
669194696435886725659599234924577554432.000000000000
-787284846152065719682303659550818959360.000000000000
910674562134662332170485502836215906304.000000000000
-1036331548031310390041343010832801333248.000000000000
1160847118571533071830763114384689463296.000000000000
-1280602448080158557564930019195793440768.000000000000
1391956205659005092906568317541447368704.000000000000
-1491439013896105678952410067258004471808.000000000000
1575939583894405030108541607116957286400.000000000000
-1642868342129214569444519942345092759552.000000000000
1690286700386461579952033170407217430528.000000000000
-1716993500242793501053922688544146456576.000000000000
1722564159900645855361663590255887908864.000000000000
-1707342199042494619607563215924891746304.000000000000
1672386677359415230508330441766695075840.000000000000
-1619382291582903150246917885911665475584.000000000000
1550521182439271346989383359850117857280.000000000000
-1468366782283360363063515845899281498112.000000000000
1375710286278123790313075159365899517952.000000000000
-1275429662055769658841171139117608599552.000000000000
1170359711233170126735933007999304466432.000000000000
-1063179793642283954730485877315077144576.000000000000
956323667762940804507834991377299537920.000000000000
-851913719431727488979901435312080945152.000000000000
751719839301836477419995896851376111616.000000000000
-657141511203078171273528244298445750272.000000000000
569210376355085446625129105189203083264.000000000000
-488609676532307857897020778257242390528.000000000000
415706540694590655336629060867599630336.000000000000
-350593016679096858062971691183124774912.000000000000
293131991323545268440012486170069958656.000000000000
-243004606392151560781391433606807683072.000000000000
199756380304600959940557303018659250176.000000000000
-162839910236826803872742087815206010880.000000000000
131652691346887922119078083176484044800.000000000000
-105569200608881860282572437809602232320.000000000000
83966918894412091923773385340174204928.000000000000
-66246388331020442567707745053430513664.000000000000
51845717144181274156499087230582652928.000000000000
-40250155642707829371490368752587898880.000000000000
30997486173720197398363201024668205056.000000000000
-23680012317763361852382258870368600064.000000000000
17943915589830245624781830830109491200.000000000000
-13486688538008799003512083859495714816.000000000000
10053266929981817827637901936226729984.000000000000
-7431383868349381411407943978409000960.000000000000
5446565616961671169620725377158610944.000000000000
-3957090318868147392368025226081992704.000000000000
2849141751784130170874665343393988608.000000000000
-2032313718635070616984982721562411008.000000000000
1435557775282629792431746490134691840.000000000000
-1003617616500242315638103177898754048.000000000000
693956545733604876081948238257586176.000000000000
-474158481011879650658451009071742976.000000000000
319766086296788000953847593484419072.000000000000
-212510016345542687949201741711409152.000000000000
138879185825423193756903902040555520.000000000000
-88981881771950150505132229948080128.000000000000
55650138211765509306746034506956800.000000000000
-33744042982150055599434897203134464.000000000000
19617751581223607456542911480463360.000000000000
-10714357697087657956215624701050880.000000000000
5262024254051453000412602277298176.000000000000
-2048549263460034197208241513955328.000000000000
256842592686954628786717978525696.000000000000
662760202390452825578510586216448.000000000000
-1071864901353397411138892793380864.000000000000
1193022536575375434104772013064192.000000000000
-1160271357011207914292219568193536.000000000000
1053025551586273956783514238058496.000000000000
-916919158549672656575116416647168.000000000000
777090704621928740961863522582528.000000000000
-646416321067805029638693097308160.000000000000
530614845803264136503993651167232.000000000000
-431369157421609326939025681940480.000000000000
348209542233332793173016747966464.000000000000
-279627113972481335263966758174720.000000000000
223713484400388306166254713962496.000000000000
-178512438163864003720113180114944.000000000000
142199528543405666829273980207104.000000000000
-113161297007119999209436136603648.000000000000
90017992749187052598036069875712.000000000000
-71616245586284576702445645725696.000000000000
57007318807948034227757266239488.000000000000
-45419905039205284306300379856896.000000000000
36232379483820762476439547150336.000000000000
-28947007716047968395059406045184.000000000000
23167197263217394875081590571008.000000000000
-18578091655169780998147376414720.000000000000
14930386985293720971407058272256.000000000000
-12027051821847073666487344431104.000000000000
9712557685913624178640061202432.000000000000
-7864222294998021719045743575040.000000000000
6385297380326026800304677191680.000000000000
-5199477367452599295898191659008.000000000000
4246553507073940443513820807168.000000000000
-3478984332941272789016144510976.000000000000
2859194866194963277984179421184.000000000000
-2357452799526677714743462985728.000000000000
1950199956344266120315571011584.000000000000
-1618742084500052260324777132032.000000000000
1348220167683304227927574446080.000000000000
-1126802623916532643347585564672.000000000000
945050679560770968699336130560.000000000000
-795419457352943764347289600000.000000000000
671865412565416737430503948288.000000000000
-569537122950714255047103873024.000000000000
484531439544110901003185815552.000000000000
-413700923543610858422816210944.000000000000
354501559642240376469867986944.000000000000
-304872131751831064726187540480.000000000000
263138518233143377901310181376.000000000000
-227937624962211201693872291840.000000000000
198156815674197298737299062784.000000000000
-172885590400023378752163545088.000000000000
151376959438961816974793900032.000000000000
-133016505099885870692421337088.000000000000
117297549839829564318208229376.000000000000
-103801183481097412307473924096.000000000000
92180164179382173365857943552.000000000000
-82145913536323048679806074880.000000000000
73457987994594267326637408256.000000000000
-65915535998697919746649620480.000000000000
59350350812070446496407879680.000000000000
-53621208170359218018147368960.000000000000
48609240662979450682885537792.000000000000
-44214150417879251202584084480.000000000000
40351101091718724082204672000.000000000000
-36948161510907088428626608128.000000000000
33944198270136818140322988032.000000000000
-31287134509891960606220615680.000000000000
28932508012548580602888060928.000000000000
-26842274504182255885238665216.000000000000
24983812277090205938724372480.000000000000
-23329092470211273572711661568.000000000000
21853985967340426686931927040.000000000000
-20537683218022087958747676672.000000000000
19362207608392914640081780736.000000000000
-18312006511783216067532292096.000000000000
17373606992946056274728976384.000000000000
-16535325453933058191110701056.000000000000
15787022396746098905482002432.000000000000
-15119895020037015240072757248.000000000000
14526301630372128223553126400.000000000000
-13999612885754915333718671360.000000000000
13534085742924150313362391040.000000000000
-13124756684746781105869291520.000000000000
12767351387659222424754323456.000000000000
-12458208474087447021360250880.000000000000
12194215399468948174258831360.000000000000
-11972754862831903053476528128.000000000000
11791660416166753117168205824.000000000000
-11649180191171734690164899840.000000000000
11543947869938816404720451584.000000000000
-11474960215439354407558316032.000000000000
11441560545448010002873712640.000000000000
-11443428705565373948122628096.000000000000
11480566656256731554187837440.000000000000
-11553399216920701444896587776.000000000000
11661639990865021159327399936.000000000000
-11817174007811417162953785344.000000000000
11898371242065665297165058048.000000000000
-13302067069555257078183886848.000000000000
181927840438481898986012672.000000000000
0.000000000000
0.000000000000
-37182375404946053394333696.000000000000
-349078425195520246268559360.000000000000
27384010834556429986940583936.000000000000
-418637253410612094809493471232.000000000000
3798280789171796776107768807424.000000000000
-25172753149352484270054844661760.000000000000
133443432625153597353071103442944.000000000000
-595514278176251003494284140740608.000000000000
2311884020671133932254460387524608.000000000000
-7987888996667502501331074778398720.000000000000
24979065009673936698627907601301504.000000000000
-71609777980671565443141996642304000.000000000000
190114987622932976874532612998168576.000000000000
-471258728780866708697364241307402240.000000000000
1098061043434022648869893416167669760.000000000000
-2418609933409092260327454456972050432.000000000000
5060046364431979401886849006460469248.000000000000
-10096596619226737181800039340648169472.000000000000
19282903222324043992991629257390161920.000000000000
-35358810228639121129493209255566639104.000000000000
62422458058808713316988369561247023104.000000000000
-106354981553662020810742516627183501312.000000000000
175263198606416443406881492722564202496.000000000000
-279888453866524159278581599806704058368.000000000000
433913283683886918312444754543983460352.000000000000
-654086471190826994591711127633972428800.000000000000
960085049915720700144152589909402583040.000000000000
-1374041811508828439278233711726016069632.000000000000
1919690268959616771196752796522429546496.000000000000
-2621115103825529228628773258146657337344.000000000000
3501141824594523592810525407005688987648.000000000000
-4579449484451935146930734705430113550336.000000000000
5870538157999237453401288423044999544832.000000000000
-7381721266613255499484605158259964248064.000000000000
9111335251857409891385843667803813445632.000000000000
-11047360808259819004005555773112286445568.000000000000
13166628859299214155235746135270328631296.000000000000
-15434741778393380238044696004563979730944.000000000000
17806780172296056866923773367642184744960.000000000000
-20228794519783037179397638721960318861312.000000000000
22640007312425017762551114975592528740352.000000000000
-24975583671705935769055653384439528947712.000000000000
27169774484968468760238981653502718115840.000000000000
-29159201816219530080656624347531840585728.000000000000
30886045035875263391492894933252256563200.000000000000
-32300898226381946869912834720555622989824.000000000000
33365102649030936015411036545404796665856.000000000000
-34052407819289589538790231951553511555072.000000000000
34349874927423720294792356145880356618240.000000000000
-34258000203190610809293545162906068320256.000000000000
33790096820260227909949739016840300986368.000000000000
-32971026486151300031002315447496796536832.000000000000
31835411870014656720402133202862711242752.000000000000
-30425486149260510155721843922531273146368.000000000000
28788745662070342291872872588824872484864.000000000000
-26975566992288611459762683264053362556928.000000000000
25036933096324065080757578509653337178112.000000000000
-23022387438025168081623525306542418034688.000000000000
20978304020550998244104344136018630279168.000000000000
-18946528134489217935027833227757605617664.000000000000
16963410629515637706544828522662341902336.000000000000
-15059229991161148071776089709072617570304.000000000000
13257973148938232048329393048473902776320.000000000000
-11577428677072060699760778677201200480256.000000000000
10029535092837593644623318939246828453888.000000000000
-8620921948283274777350567227013516492800.000000000000
7353581560646589341891335178474666065920.000000000000
-6225613482643445287914463811000145543168.000000000000
5231991011516984365625644621027296149504.000000000000
-4365308026757958940005413047980913590272.000000000000
3616474195066977324983120140545262878720.000000000000
-2975336227729922572239704246114112765952.000000000000
2431211767997077836278601436212647428096.000000000000
-1973330184472834690094767646798675705856.000000000000
1591180807743429348648274763977641164800.000000000000
-1274773895654304221651090119016073658368.000000000000
1014822902827782428298619216989266116608.000000000000
-802858609780118335006151636785695817728.000000000000
631286540454089121415553210350611464192.000000000000
-493399093634665178133503752763663712256.000000000000
383353163788963302823629670263436607488.000000000000
-296122943462059436362973719945279438848.000000000000
227436267034726147643741656454099107840.000000000000
-173701424650850683869134076020699168768.000000000000
131929960026732540348199325879976853504.000000000000
-99659647475693601155164542417403641856.000000000000
74880672884924646851664342038981115904.000000000000
-55967047023781020604384751034034028544.000000000000
41614464780765879105886151516457271296.000000000000
-30785184211419281683213331048402255872.000000000000
22660018969294503124934274962815975424.000000000000
-16597195885203199136962802756760895488.000000000000
12097603081052507671315368949464432640.000000000000
-8775820055218140156188567087278456832.000000000000
6336258253449256180732007848467234816.000000000000
-4553729845493275666248104237424705536.000000000000
3257787803552518078076541500833923072.000000000000
-2320228983102274158505598913316126720.000000000000
1645213657412044692377570598583271424.000000000000
-1161522326099165867083509636454678528.000000000000
824190687614592610035339309069893632.000000000000
-586366395322751627099523235396452352.000000000000
418542783893401702757269862713655296.000000000000
-299694509291284049273601559455858688.000000000000
215286181722441858558848409427509248.000000000000
-155152625923278017714899815713734656.000000000000
112181569755399005481643160274731008.000000000000
-81379690060307700285227225575325696.000000000000
59231990521749366101254467041099776.000000000000
-43257003487396014001891693549322240.000000000000
31697928389285116851943882040016896.000000000000
-23307444612859862722239056245161984.000000000000
17197415982599212858778008789450752.000000000000
-12733632379980091958807467963449344.000000000000
9461896119570303701467502456340480.000000000000
-7055979254941180412486255093219328.000000000000
5280881481690685890980971789942784.000000000000
-3966820100515019538523916930646016.000000000000
2990767354827254660901589638709248.000000000000
-2263309449677929084752283232632832.000000000000
1719267796190733811039789232685056.000000000000
-1310987032195405994762072022319104.000000000000
1003518338818384392515200600768512.000000000000
-771153333779099837618308884987904.000000000000
594922940352705523417831801094144.000000000000
-460787564347294783180801365245952.000000000000
358323849991113696799246887419904.000000000000
-279769095358000646389534078009344.000000000000
219323964996248707602871211786240.000000000000
-172642245578493471256980525940736.000000000000
136456413769734269579602331435008.000000000000
-108302085669537063034434451668992.000000000000
86314655880944663548620804456448.000000000000
-69078783639798355148389620908032.000000000000
55516672287543488394532527013888.000000000000
-44804904103829323176095007113216.000000000000
36312352478442962240290479407104.000000000000
-29553694826521098508146493620224.000000000000
24154504734196161279324806184960.000000000000
-19824962421205755032810872111104.000000000000