# vtk DataFile Version 2.0
TITLE = "Quad data"
ASCII
DATASET STRUCTURED_GRID
DIMENSIONS 65 65 1
POINTS 4225 FLOAT
0.000000 0.000000 0.000000
0.000000 0.015625 0.000000
0.000000 0.031250 0.000000
0.000000 0.046875 0.000000
0.000000 0.062500 0.000000
0.000000 0.078125 0.000000
0.000000 0.093750 0.000000
0.000000 0.109375 0.000000
0.000000 0.125000 0.000000
0.000000 0.140625 0.000000
0.000000 0.156250 0.000000
0.000000 0.171875 0.000000
0.000000 0.187500 0.000000
0.000000 0.203125 0.000000
0.000000 0.218750 0.000000
0.000000 0.234375 0.000000
0.000000 0.250000 0.000000
0.000000 0.265625 0.000000
0.000000 0.281250 0.000000
0.000000 0.296875 0.000000
0.000000 0.312500 0.000000
0.000000 0.328125 0.000000
0.000000 0.343750 0.000000
0.000000 0.359375 0.000000
0.000000 0.375000 0.000000
0.000000 0.390625 0.000000
0.000000 0.406250 0.000000
0.000000 0.421875 0.000000
0.000000 0.437500 0.000000
0.000000 0.453125 0.000000
0.000000 0.468750 0.000000
0.000000 0.484375 0.000000
0.000000 0.500000 0.000000
0.000000 0.515625 0.000000
0.000000 0.531250 0.000000
0.000000 0.546875 0.000000
0.000000 0.562500 0.000000
0.000000 0.578125 0.000000
0.000000 0.593750 0.000000
0.000000 0.609375 0.000000
0.000000 0.625000 0.000000
0.000000 0.640625 0.000000
0.000000 0.656250 0.000000
0.000000 0.671875 0.000000
0.000000 0.687500 0.000000
0.000000 0.703125 0.000000
0.000000 0.718750 0.000000
0.000000 0.734375 0.000000
0.000000 0.750000 0.000000
0.000000 0.765625 0.000000
0.000000 0.781250 0.000000
0.000000 0.796875 0.000000
0.000000 0.812500 0.000000
0.000000 0.828125 0.000000
0.000000 0.843750 0.000000
0.000000 0.859375 0.000000
0.000000 0.875000 0.000000
0.000000 0.890625 0.000000
0.000000 0.906250 0.000000
0.000000 0.921875 0.000000
0.000000 0.937500 0.000000
0.000000 0.953125 0.000000
0.000000 0.968750 0.000000
0.000000 0.984375 0.000000
0.000000 1.000000 0.000000
0.015625 0.000000 0.000000
0.015625 0.015625 0.000000
0.015625 0.031250 0.000000
0.015625 0.046875 0.000000
0.015625 0.062500 0.000000
0.015625 0.078125 0.000000
0.015625 0.093750 0.000000
0.015625 0.109375 0.000000
0.015625 0.125000 0.000000
0.015625 0.140625 0.000000
0.015625 0.156250 0.000000
0.015625 0.171875 0.000000
0.015625 0.187500 0.000000
0.015625 0.203125 0.000000
0.015625 0.218750 0.000000
0.015625 0.234375 0.000000
0.015625 0.250000 0.000000
0.015625 0.265625 0.000000
0.015625 0.281250 0.000000
0.015625 0.296875 0.000000
0.015625 0.312500 0.000000
0.015625 0.328125 0.000000
0.015625 0.343750 0.000000
0.015625 0.359375 0.000000
0.015625 0.375000 0.000000
0.015625 0.390625 0.000000
0.015625 0.406250 0.000000
0.015625 0.421875 0.000000
0.015625 0.437500 0.000000
0.015625 0.453125 0.000000
0.015625 0.468750 0.000000
0.015625 0.484375 0.000000
0.015625 0.500000 0.000000
0.015625 0.515625 0.000000
0.015625 0.531250 0.000000
0.015625 0.546875 0.000000
0.015625 0.562500 0.000000
0.015625 0.578125 0.000000
0.015625 0.593750 0.000000
0.015625 0.609375 0.000000
0.015625 0.625000 0.000000
0.015625 0.640625 0.000000
0.015625 0.656250 0.000000
0.015625 0.671875 0.000000
0.015625 0.687500 0.000000
0.015625 0.703125 0.000000
0.015625 0.718750 0.000000
0.015625 0.734375 0.000000
0.015625 0.750000 0.000000
0.015625 0.765625 0.000000
0.015625 0.781250 0.000000
0.015625 0.796875 0.000000
0.015625 0.812500 0.000000
0.015625 0.828125 0.000000
0.015625 0.843750 0.000000
0.015625 0.859375 0.000000
0.015625 0.875000 0.000000
0.015625 0.890625 0.000000
0.015625 0.906250 0.000000
0.015625 0.921875 0.000000
0.015625 0.937500 0.000000
0.015625 0.953125 0.000000
0.015625 0.968750 0.000000
0.015625 0.984375 0.000000
0.015625 1.000000 0.000000
0.031250 0.000000 0.000000
0.031250 0.015625 0.000000
0.031250 0.031250 0.000000
0.031250 0.046875 0.000000
0.031250 0.062500 0.000000
0.031250 0.078125 0.000000
0.031250 0.093750 0.000000
0.031250 0.109375 0.000000
0.031250 0.125000 0.000000
0.031250 0.140625 0.000000
0.031250 0.156250 0.000000
0.031250 0.171875 0.000000
0.031250 0.187500 0.000000
0.031250 0.203125 0.000000
0.031250 0.218750 0.000000
0.031250 0.234375 0.000000
0.031250 0.250000 0.000000
0.031250 0.265625 0.000000
0.031250 0.281250 0.000000
0.031250 0.296875 0.000000
0.031250 0.312500 0.000000
0.031250 0.328125 0.000000
0.031250 0.343750 0.000000
0.031250 0.359375 0.000000
0.031250 0.375000 0.000000
0.031250 0.390625 0.000000
0.031250 0.406250 0.000000
0.031250 0.421875 0.000000
0.031250 0.437500 0.000000
0.031250 0.453125 0.000000
0.031250 0.468750 0.000000
0.031250 0.484375 0.000000
0.031250 0.500000 0.000000
0.031250 0.515625 0.000000
0.031250 0.531250 0.000000
0.031250 0.546875 0.000000
0.031250 0.562500 0.000000
0.031250 0.578125 0.000000
0.031250 0.593750 0.000000
0.031250 0.609375 0.000000
0.031250 0.625000 0.000000
0.031250 0.640625 0.000000
0.031250 0.656250 0.000000
0.031250 0.671875 0.000000
0.031250 0.687500 0.000000
0.031250 0.703125 0.000000
0.031250 0.718750 0.000000
0.031250 0.734375 0.000000
0.031250 0.750000 0.000000
0.031250 0.765625 0.000000
0.031250 0.781250 0.000000
0.031250 0.796875 0.000000
0.031250 0.812500 0.000000
0.031250 0.828125 0.000000
0.031250 0.843750 0.000000
0.031250 0.859375 0.000000
0.031250 0.875000 0.000000
0.031250 0.890625 0.000000
0.031250 0.906250 0.000000
0.031250 0.921875 0.000000
0.031250 0.937500 0.000000
0.031250 0.953125 0.000000
0.031250 0.968750 0.000000
0.031250 0.984375 0.000000
0.031250 1.000000 0.000000
0.046875 0.000000 0.000000
0.046875 0.015625 0.000000
0.046875 0.031250 0.000000
0.046875 0.046875 0.000000
0.046875 0.062500 0.000000
0.046875 0.078125 0.000000
0.046875 0.093750 0.000000
0.046875 0.109375 0.000000
0.046875 0.125000 0.000000
0.046875 0.140625 0.000000
0.046875 0.156250 0.000000
0.046875 0.171875 0.000000
0.046875 0.187500 0.000000
0.046875 0.203125 0.000000
0.046875 0.218750 0.000000
0.046875 0.234375 0.000000
0.046875 0.250000 0.000000
0.046875 0.265625 0.000000
0.046875 0.281250 0.000000
0.046875 0.296875 0.000000
0.046875 0.312500 0.000000
0.046875 0.328125 0.000000
0.046875 0.343750 0.000000
0.046875 0.359375 0.000000
0.046875 0.375000 0.000000
0.046875 0.390625 0.000000
0.046875 0.406250 0.000000
0.046875 0.421875 0.000000
0.046875 0.437500 0.000000
0.046875 0.453125 0.000000
0.046875 0.468750 0.000000
0.046875 0.484375 0.000000
0.046875 0.500000 0.000000
0.046875 0.515625 0.000000
0.046875 0.531250 0.000000
0.046875 0.546875 0.000000
0.046875 0.562500 0.000000
0.046875 0.578125 0.000000
0.046875 0.593750 0.000000
0.046875 0.609375 0.000000
0.046875 0.625000 0.000000
0.046875 0.640625 0.000000
0.046875 0.656250 0.000000
0.046875 0.671875 0.000000
0.046875 0.687500 0.000000
0.046875 0.703125 0.000000
0.046875 0.718750 0.000000
0.046875 0.734375 0.000000
0.046875 0.750000 0.000000
0.046875 0.765625 0.000000
0.046875 0.781250 0.000000
0.046875 0.796875 0.000000
0.046875 0.812500 0.000000
0.046875 0.828125 0.000000
0.046875 0.843750 0.000000
0.046875 0.859375 0.000000
0.046875 0.875000 0.000000
0.046875 0.890625 0.000000
0.046875 0.906250 0.000000
0.046875 0.921875 0.000000
0.046875 0.937500 0.000000
0.046875 0.953125 0.000000
0.046875 0.968750 0.000000
0.046875 0.984375 0.000000
0.046875 1.000000 0.000000
0.062500 0.000000 0.000000
0.062500 0.015625 0.000000
0.062500 0.031250 0.000000
0.062500 0.046875 0.000000
0.062500 0.062500 0.000000
0.062500 0.078125 0.000000
0.062500 0.093750 0.000000
0.062500 0.109375 0.000000
0.062500 0.125000 0.000000
0.062500 0.140625 0.000000
0.062500 0.156250 0.000000
0.062500 0.171875 0.000000
0.062500 0.187500 0.000000
0.062500 0.203125 0.000000
0.062500 0.218750 0.000000
0.062500 0.234375 0.000000
0.062500 0.250000 0.000000
0.062500 0.265625 0.000000
0.062500 0.281250 0.000000
0.062500 0.296875 0.000000
0.062500 0.312500 0.000000
0.062500 0.328125 0.000000
0.062500 0.343750 0.000000
0.062500 0.359375 0.000000
0.062500 0.375000 0.000000
0.062500 0.390625 0.000000
0.062500 0.406250 0.000000
0.062500 0.421875 0.000000
0.062500 0.437500 0.000000
0.062500 0.453125 0.000000
0.062500 0.468750 0.000000
0.062500 0.484375 0.000000
0.062500 0.500000 0.000000
0.062500 0.515625 0.000000
0.062500 0.531250 0.000000
0.062500 0.546875 0.000000
0.062500 0.562500 0.000000
0.062500 0.578125 0.000000
0.062500 0.593750 0.000000
0.062500 0.609375 0.000000
0.062500 0.625000 0.000000
0.062500 0.640625 0.000000
0.062500 0.656250 0.000000
0.062500 0.671875 0.000000
0.062500 0.687500 0.000000
0.062500 0.703125 0.000000
0.062500 0.718750 0.000000
0.062500 0.734375 0.000000
0.062500 0.750000 0.000000
0.062500 0.765625 0.000000
0.062500 0.781250 0.000000
0.062500 0.796875 0.000000
0.062500 0.812500 0.000000
0.062500 0.828125 0.000000
0.062500 0.843750 0.000000
0.062500 0.859375 0.000000
0.062500 0.875000 0.000000
0.062500 0.890625 0.000000
0.062500 0.906250 0.000000
0.062500 0.921875 0.000000
0.062500 0.937500 0.000000
0.062500 0.953125 0.000000
0.062500 0.968750 0.000000
0.062500 0.984375 0.000000
0.062500 1.000000 0.000000
0.078125 0.000000 0.000000
0.078125 0.015625 0.000000
0.078125 0.031250 0.000000
0.078125 0.046875 0.000000
0.078125 0.062500 0.000000
0.078125 0.078125 0.000000
0.078125 0.093750 0.000000
0.078125 0.109375 0.000000
0.078125 0.125000 0.000000
0.078125 0.140625 0.000000
0.078125 0.156250 0.000000
0.078125 0.171875 0.000000
0.078125 0.187500 0.000000
0.078125 0.203125 0.000000
0.078125 0.218750 0.000000
0.078125 0.234375 0.000000
0.078125 0.250000 0.000000
0.078125 0.265625 0.000000
0.078125 0.281250 0.000000
0.078125 0.296875 0.000000
0.078125 0.312500 0.000000
0.078125 0.328125 0.000000
0.078125 0.343750 0.000000
0.078125 0.359375 0.000000
0.078125 0.375000 0.000000
0.078125 0.390625 0.000000
0.078125 0.406250 0.000000
0.078125 0.421875 0.000000
0.078125 0.437500 0.000000
0.078125 0.453125 0.000000
0.078125 0.468750 0.000000
0.078125 0.484375 0.000000
0.078125 0.500000 0.000000
0.078125 0.515625 0.000000
0.078125 0.531250 0.000000
0.078125 0.546875 0.000000
0.078125 0.562500 0.000000
0.078125 0.578125 0.000000
0.078125 0.593750 0.000000
0.078125 0.609375 0.000000
0.078125 0.625000 0.000000
[...]
POINT_DATA 4225
SCALARS phi FLOAT 1
LOOKUP_TABLE default
0.000000000000
0.001209008793
0.002427499960
0.003655547871
0.004893227482
0.006140614334
0.007397784562
0.008664814899
0.009941782678
0.011228765839
0.012525842934
0.013833093131
0.015150596219
0.016478432611
0.017816683353
0.019165430125
0.020524755250
0.021894741694
0.023275473075
0.024667033666
0.026069508402
0.027482982884
0.028907543383
0.030343276849
0.031790270912
0.033248613890
0.034718394794
0.036199703333
0.037692629918
0.039197265672
0.040713702430
0.042242032749
0.043782349911
0.045334747931
0.046899321559
0.048476166290
0.050065378368
0.051667054790
0.053281293317
0.054908192473
0.056547851557
0.058200370647
0.059865850604
0.061544393083
0.063236100534
0.064941076211
0.066659424177
0.068391249314
0.070136657324
0.071895754738
0.073668648925
0.075455448093
0.077256261300
0.079071198460
0.080900370349
0.082743888611
0.084601865766
0.086474415216
0.088361651254
0.090263689067
0.092180644748
0.094112635299
0.096059778639
0.098022193614
0.100000000000
0.001763472468
0.002270285961
0.003160334557
0.004206216258
0.005329306564
0.006498191009
0.007698441880
0.008922589547
0.010166382024
0.011427219549
0.012703426984
0.013993883703
0.015297820733
0.016614702526
0.017944154556
0.019285917112
0.020639814835
0.022005736067
0.023383618573
0.024773439513
0.026175208339
0.027588961782
0.029014760338
0.030452685921
0.031902840397
0.033365344860
0.034840339540
0.036327984269
0.037828459503
0.039341967877
0.040868736343
0.042409018930
0.043963100217
0.045531299625
0.047113976687
0.048711537471
0.050324442425
0.051953215956
0.053598458152
0.055260859201
0.056941217194
0.058640460249
0.060359674178
0.062100137362
0.063863365065
0.065651166295
0.067465717525
0.069309659409
0.071186225340
0.073099414907
0.075054231879
0.077057017031
0.079115923938
0.081241616632
0.083448323400
0.085755485227
0.088190444657
0.090793059095
0.093624118763
0.096781906046
0.100437858756
0.104921929472
0.110952042261
0.120328160094
0.118342617842
0.002594833303
0.003101646796
0.003856542127
0.004775657046
0.005799334039
0.006892387939
0.008034408916
0.009213202490
0.010421172274
0.011653387154
0.012906528793
0.014178297324
0.015467061866
0.016771646731
0.018091195885
0.019425084265
0.020772858174
0.022134194315
0.023508871133
0.024896748522
0.026297753362
0.027711869241
0.029139129265
0.030579611214
0.032033434556
0.033500758984
0.034981784277
0.036476751349
0.037985944446
0.039509694502
0.041048383706
0.042602451405
0.044172401517
0.045758811684
0.047362344489
0.048983761136
0.050623938119
0.052283887566
0.053964782103
0.055667985384
0.057395089745
0.059147962893
0.060928806191
0.062740227936
0.064585336238
0.066467857803
0.068392291384
0.070364108216
0.072390017108
0.074478319897
0.076639395539
0.078886370975
0.081236069303
0.083710380158
0.086338291177
0.089158987690
0.092226739767
0.095618895475
0.099449489907
0.103893394425
0.109230794605
0.115930796355
0.124804134121
0.137232541961
0.135246999709
0.003303343178
0.003810156670
0.004499707664
0.005336422046
0.006282739999
0.007309751657
0.008397264478
0.009531536418
0.010703187232
0.011905719131
0.013134547885
0.014386380777
0.015658815596
0.016950078330
0.018258848358
0.019584139697
0.020925218857
0.022281547097
0.023652739332
0.025038534631
0.026438774977
0.027853390063
0.029282386611
0.030725841172
0.032183895732
0.033656755622
0.035144689466
0.036648030974
0.038167182521
0.039702620543
0.041254902832
0.042824677942
0.044412696960
0.046019828022
0.047647074062
0.049295594434
0.050966731199
0.052662041146
0.054383334851
0.056132724524
0.057912682844
0.059726115718
0.061576452788
0.063467760771
0.065404886481
0.067393638797
0.069441022323
0.071555540454
0.073747592876
0.076030003303
0.078418729661
0.080933834027
0.083600829055
0.086452580545
0.089532047983
0.092896313465
0.096622629626
0.100817680460
0.105631987919
0.111282450298
0.118086988133
0.126514044479
0.137237952505
0.151143708476
0.149158166224
0.003938785005
0.004445598498
0.005098716588
0.005880895090
0.006768908503
0.007741186371
0.008780313486
0.009873049449
0.011009563219
0.012182596129
0.013386771834
0.014618080722
0.015873509499
0.017150778613
0.018448156271
0.019764326000
0.021098291616
0.022449308475
0.023816833426
0.025200488230
0.026600032889
0.028015346352
0.029446412908
0.030893313025
0.032356217824
0.033835386608
0.035331167113
0.036843998255
0.038374415318
0.039923057637
0.041490678904
0.043078160387
0.044686527418
0.046316969675
0.047970865920
0.049649814049
0.051355667558
0.053090579822
0.054857057957
0.056658028573
0.058496918347
0.060377753235
0.062305281307
0.064285125755
0.066323976785
0.068429834045
0.070612315371
0.072883053454
0.075256210262
0.077749150998
0.080383336679
0.083185519915
0.086189366181
0.089437678939
0.092985489886
0.096904396088
0.101288692631
0.106264054593
0.111999693595
0.118724785388
0.126748751891
0.136480711402
0.148432064544
0.163163142075
0.161177599823
0.004528140432
0.005034953925
0.005665336395
0.006409924728
0.007253955442
0.008181753994
0.009179167315
0.010234404143
0.011338039488
0.012482692248
0.013662632764
0.014873424835
0.016111632668
0.017374592670
0.018660239918
0.019966977642
0.021293579432
0.022639116061
0.024002900739
0.025384448271
0.026783444782
0.028199725601
0.029633259568
0.031084138521
0.032552571083
0.034038880166
0.035543503801
0.037066999104
0.038610049320
0.040173474031
0.041758242725
0.043365492087
0.044996547485
0.046652949304
0.048336484958
0.050049227675
0.051793583397
0.053572347534
0.055388773755
0.057246657602
0.059150438482
0.061105324591
0.063117446682
0.065194048311
0.067343722612
0.069576708804
0.071905265999
0.074344147802
0.076911209362
0.079628189819
0.082521728667
0.085624696084
0.088977946523
0.092632643860
0.096653355455
0.101122167513
0.106144117535
0.111854221188
0.118426166306
0.126082080279
0.135101109899
0.145821044412
0.158621250506
0.173868971246
0.171883428994
0.005088164236
0.005594977729
0.006209935195
0.006927482057
0.007737854588
0.008629637362
0.009591597271
0.010613652987
0.011687222792
0.012805223760
0.013961913829
0.015152685510
0.016373863971
0.017622530516
0.018896376739
0.020193587688
0.021512749926
0.022852780017
0.024212869380
0.025592442153
0.026991123411
0.028408715689
0.029845182255
0.031300635993
0.032775333079
0.034269670880
0.035784189718
0.037319578343
0.038876683083
0.040456520800
0.042060295945
0.043689422116
0.045345548718
0.047030593505
0.048746782004
0.050496695082
0.052283326257
0.054110150768
0.055981208907
0.057901206817
0.059875638750
0.061910935902
0.064014648307
0.066195668122
0.068464504994
0.070833627353
0.073317887568
0.075935054341
0.078706482811
0.081657962118
0.084820792051
0.088233155253
0.091941868952
0.096004618666
0.100492790537
0.105495016384
0.111121498785
0.117509037250
0.124826328499
0.133278396825
0.143107712013
0.154587580443
0.168001333047
0.183601166869
0.181615624617
0.005630551809
0.006137365302
0.006741201589
0.007438542872
0.008222673564
0.009085163579
0.010017148704
0.011010181296
0.012056679427
0.013150092233
0.014284897402
0.015456514925
0.016661189039
0.017895866707
0.019158086192
0.020445880895
0.021757699328
0.023092340096
0.024448900036
0.025826733565
0.027225421437
0.028644747409
0.030084681601
0.031545369619
0.033027126737
0.034530436677
0.036055954696
0.037604514861
0.039177141550
0.040775065372
0.042399743858
0.044052887414
0.045736491240
0.047452874106
0.049204725112
0.050995159890
0.052827787998
0.054706793758
0.056637033297
0.058624151232
0.060674721317
0.062796416432
0.064998214673
0.067290650056
0.069686118514
0.072199252733
0.074847382822
0.077651104272
0.080634980029
0.083828409922
0.087266707935
0.090992435162
0.095057041884
0.099522872368
0.104465572912
0.109976903235
0.116167858409
0.123171822541
0.131147138547
0.140277928736
0.150771227753
0.162847678729
0.176722856578
0.192578151494
0.190592609242
0.006164330495
0.006671143988
0.007266597379
0.007948357072
0.008711642440
0.009550116737
0.010456763298
0.011424563283
0.012446932682
0.013517954327
0.014632464814
0.015786051814
0.016975003204
0.018196235194
0.019447215639
0.020725891258
0.022030622884
0.023360130165
0.024713445789
0.026089878572
0.027488984562
0.028910545257
0.030354552128
0.031821196816
0.033310866464
0.034824143885
0.036361812342
0.037924864935
0.039514518679
0.041132233557
0.042779736948
0.044459054030
0.046172544928
0.047922949600
0.049713441720
0.051547693105
0.053429950607
0.055365127842
0.057358914654
0.059417907914
0.061549768041
0.063763406684
0.066069212230
0.068479321372
0.071007946819
0.073671773526
0.076490438470
0.079487112135
0.082689203163
0.086129211036
0.089845754167
0.093884801341
0.098301130289
0.103160024053
0.108539186145
0.114530797619
0.121243535791
0.128804203558
0.137358360022
0.147068999148
0.158111961534
0.170666596763
0.184900657333
0.200950116062
0.198964573811
0.006697098963
0.007203912456
0.007792834767
0.008462268841
0.009208713579
0.010027320459
0.010912495433
0.011858418425
0.012859425477
0.013910252261
0.015006164394
0.016143006987
0.017317202545
0.018525719499
0.019766026671
0.021036043440
0.022334091346
0.023658850213
0.025009320231
0.026384790454
0.027784813672
0.029209187362
0.030657940353
0.032131324846
0.033629813526
0.035154101572
0.036705113516
0.038284015004
0.039892229655
0.041531461362
0.043203722508
0.044911368782
0.046657141416
0.048444217949
0.050276272818
0.052157549435
0.054092945723
0.056088115567
0.058149589092
0.060284915384
0.062502831932
0.064813466049
0.067228574531
0.069761829112
0.072429156672
0.075249144816
0.078243525117
0.081437748036
0.084861664836
0.088550332288
0.092544954585
0.096893972061
0.101654295594
0.106892664782
0.112687071599
0.119128131294
0.126320189901
0.134381825852
0.143445234361
0.153653805347
0.165157096516
0.178102516967
0.192623600476
0.208825955917
0.206840413665
0.007235742894
0.007742556386
0.008326262112
0.008985746746
0.009718388017
0.010520416079
0.011387332989
0.012314305792
0.013296484726
0.014329231531
0.015408264523
0.016529737052
0.017690267978
0.018886940624
0.020117283030
0.021379238713
0.022671134077
0.023991646383
0.025339774564
0.026714814161
0.028116336970
0.029544175646
0.030998413280
0.032479377922
0.033987641984
0.035524026538
0.037089610560
0.038685745314
0.040314074137
0.041976558049
0.043675507752
0.045413622721
0.047194038320
0.049020382055
0.050896840339
0.052828237449
0.054820128671
0.056878910058
0.059011947669
0.061227729733
0.063536045806
0.065948197730
0.068477248023
0.071138312259
0.073948902912
0.076929333117
0.080103189500
0.083497883636
0.087145291214
0.091082486112
0.095352572277
0.100005608061
0.105099603291
0.110701546013
0.116888379657
0.123747798572
0.131378657762
0.139890703012
0.149403233046
0.160042237519
0.171935574725
0.185205952236
0.199961948436
0.216288084068
0.214302541816
0.007786894713
0.008293708206
0.008873167751
0.009524492183
0.010245683733
0.011033771098
0.011885107313
0.012795667187
0.013761306322
0.014777963685
0.015841805257
0.016949315632
0.018097348385
0.019283146471
0.020504342555
0.021758947109
0.023045330085
0.024362200248
0.025708584878
0.027083811602
0.028487493425
0.029919517606
0.031380038744
0.032869476306
0.034388516773
0.035938120554
0.037519533900
0.039134306079
0.040784312184
0.042471782073
0.044199336040
0.045970028012
0.047787397197
0.049655529357
0.051579129086
0.053563604735
0.055615167977
0.057740950302
0.059949139191
0.062249137124
0.064651747127
0.067169389067
0.069816351503
0.072609084430
0.075566538717
0.078710558320
0.082066331225
0.085662904307
0.089533765456
0.093717492736
0.098258464204
0.103207612045
0.108623189289
0.114571494793
0.121127470497
0.128375043185
0.136407032313
0.145324391817
0.155234511464
0.166248298674
0.178475834783
0.192020596792
0.206972586000
0.223401174439
0.221415632187
0.008357262462
0.008864075954
0.009440029313
0.010084578086
0.010796181902
0.011572473227
0.012410473213
0.013306818256
0.014257968992
0.015260384936
0.016310658562
0.017405610132
0.018542348795
0.019718307146
0.020931256370
0.022179308242
0.023460909027
0.024774829133
0.026120151323
0.027496259464
0.028902829197
0.030339821436
0.031807479339
0.033306329219
0.034837185739
0.036401161721
0.037999682904
0.039634508040
0.041307754757
0.043021931771
0.044779978087
0.046585310018
0.048441876975
0.050354227189
0.052327584730
0.054367939415
0.056482151480
0.058678073169
0.060964689740
0.063352282701
0.065852618477
0.068479166034
0.071247347301
0.074174824415
0.077281827841
0.080591529089
0.084130460948
0.087928986477
0.092021815235
0.096448560586
0.101254324955
0.106490289568
0.112214270566
0.118491183654
0.125393334015
0.133000418032
0.141399091237
0.150681929913
0.160945604055
0.172288105802
0.184804962926
0.198584531042
0.213702700999
0.230217637480
0.228232095228
0.008953891569
0.009460705061
0.010033732167
0.010672602567
0.011376120008
0.012142382837
0.012968943571
0.013852983253
0.014791479909
0.015781356945
0.016819604282
0.017903370648
0.019030029201
0.020197220690
0.021402879006
0.022645243874
0.023922864824
0.025234599841
0.026579611369
0.027957361691
0.029367609195
0.030810406616
0.032286102099
0.033795343695
0.035339087818
0.036918612114
0.038535533180
0.040191829622
0.041889870957
0.043632452973
0.045422840252
0.047264816676
0.049162744887
0.051121635828
0.053147229672
0.055246089647
0.057425710470
0.059694643359
0.062062639785
0.064540816399
0.067141843753
0.069880161573
0.072772223431
0.075836773508
0.079095157778
0.082571671185
0.086293940974
0.090293344154
0.094605453670
0.099270502842
0.104333850546
0.109846419876
0.115865070214
0.122452846585
0.129679031281
0.137618902726
0.146353088776
0.155966392427
0.166545976382
0.178178831033
0.190948529806
0.204931401910
0.220192415496
0.236781228958
0.234795686706
0.009584394987
0.010091208480
0.010661774607
0.011295854751
0.011992517854
0.012750228712
0.013566968241
0.014440369286
0.015367852888
0.016346753619
0.017374427056
0.018448336498
0.019566119134
0.020725633799
0.021924993440
0.023162585725
0.024437085030
0.025747458691
0.027092969913
0.028473179266
0.029887946310
0.031337432517
0.032822106451
0.034342751945
0.035900479901
0.037496744292
0.039133362887
0.040812543246
0.042536914573
0.044309566054
0.046134092429
0.048014647602
0.049956007250
0.051963641504
0.054043798918
0.056203603125
0.058451163691
0.060795702893
0.063247700253
0.065819056776
0.068523280936
0.071375698387
0.074393687219
0.077596940218
0.081007754873
0.084651350767
0.088556212268
0.092754451878
0.097282185993
0.102179909828
0.107492851636
0.113271277756
0.119570709532
0.126452000876
0.133981212246
0.142229204877
0.151270871479
0.161183921231
0.172047153993
0.183938198135
0.196930752984
0.211091469874
0.226476713265
0.243129540102
0.241143997850
0.010257173271
0.010763986763
0.011332472889
0.011962495137
0.012653331315
0.013403739705
0.014212051394
0.015076277413
0.015994219683
0.016963576780
0.017982038386
0.019047365106
0.020157452787
0.021310382106
0.022504455310
0.023738222452
0.025010499593
0.026320381295
0.027667249487
0.029050780456
0.030470951451
0.031928048078
0.033422673502
0.034955760262
0.036528585418
0.038142789674
0.039800401059
0.041503863784
0.043256072894
0.045060415368
0.046920818415
0.048841805767
0.050828562884
0.052887012061
0.055023898569
0.057246889055
0.059564683521
0.061987142311
0.064525429576
0.067192174709
0.070001653160
0.072969987862
0.076115372147
0.079458314451
0.083021904173
0.086832096741
0.090918013986
0.095312253301
0.100051195458
0.105175296337
0.110729341923
0.116762638807
0.123329104231
0.130487210974
0.138299734155
0.146833241062
0.156157264190
0.166343105148
0.177462237078
0.189584309157
0.202774809804
0.217092512068
0.232586895110
0.249295792240
0.247310249988
0.010981639153
0.011488452645
0.012055176359
0.012681754762
0.013367633458
0.014111809798
0.014912905003
0.015769249800
0.016678975492
0.017640103431
0.018650627699
0.019708587718
0.020812129389
0.021959554704
0.023149360820
0.024380270137
0.025651253164
0.026961546039
0.028310664412
0.029698415270
0.031124908048
0.032590566204
0.034096140234
0.035642723016
0.037231768195
0.038865112339
0.040545001477
0.042274122676
0.044055641283
0.045893244530
0.047791192197
0.049754375137
0.051788382490
0.053899578524
0.056095190073
0.058383405647
0.060773487304
0.063275896416
0.065902434425
0.068666399612
0.071582760703
0.074668347836
0.077942060908
0.081425094599
0.085141178301
0.089116827734
0.093381603031
0.097968365506
0.102913521967
0.108257241301
0.114043623125
0.120320792623
0.127140889675
0.134559914547
0.142637387872
0.151435780885
0.161019674877
0.171454619044
0.182805675600
0.195135671594
0.208503217879
0.222960603109
0.238551716707
0.255310187560
0.253324645308
0.011768457590
0.012275271082
0.012840501367
0.013464158498
0.014145825375
0.014884697216
0.015679638829
0.016529253967
0.017431960764
0.018386067799
0.019389846448
0.020441596544
0.021539703709
0.022682687864
0.023869243277
0.025098271095
0.026368905637
0.027680535853
0.029032823377
0.030425718506
0.031859475330
0.033334667109
0.034852202853
0.036413345971
0.038019735754
0.039673412396
0.041376846231
0.043132971831
0.044945227610
0.046817601613
0.048754684182
0.050761728230
0.052844717898
0.055010446420
0.057266604038
0.059621876848
0.062086057435
0.064670168140
0.067386597680
0.070249251698
0.073273717517
0.076477442995
0.079879928751
0.083502932225
0.087370680888
0.091510090458
0.095950982019
0.100726289541
0.105872246298
0.111428535198
0.117438383987
0.123948582076
0.131009391491
0.138674321014
0.146999730659
0.156044234586
0.165867875675
0.176531055953
0.188093224898
0.200611352724
0.214138246843
0.228720803152
0.244398313882
0.261200972612
0.259215430360
0.012629810523
0.013136624015
0.013700591922
0.014321778476
0.014999880847
0.015734260494
0.016523989359
0.017367906770
0.018264682552
0.019212882087
0.020211029784
0.021257668313
0.022351411964
0.023490993390
0.024675303700
0.025903426434
0.027174666268
0.028488573521
0.029844965599
0.031243946495
0.032685925433
0.034171635655
0.035702154244
0.037278923842
0.038903776990
0.040578963835
0.042307183837
0.044091622160
0.045935991362
0.047844579044
0.049822302113
0.051874768334
0.054008345864
0.056230241473
0.058548588156
0.060972542822
0.063512394695
0.066179684963
0.068987338072
0.071949804797
0.075083216906
0.078405552743
0.081936812376
0.085699200131
0.089717311131
0.094018317070
0.098632144612
0.103591637639
0.108932692021
0.114694348668
0.120918827555
0.127651482310
0.134940652300
0.142837387414
0.151395020681
0.160668566415
0.170713927655
0.181586907207
0.193342032048
0.206031220951
0.219702348464
0.234397781989
0.250152988292
0.266995316406
0.265009774154
0.013579694977
0.014086508469
0.014649414974
0.015268524322
0.015943630321
0.016674236083
0.017459591860
0.018298742323
0.019190579900
0.020133900847
0.021127461142
0.022170029946
0.023260439081
0.024397627664
0.025580681649
0.026808868489
0.028081667489
0.029398796603
0.030760236599
0.032166253498
0.033617420247
0.035114638503
0.036659161368
0.038252617880
0.039897039965
0.041594892575
0.043349107627
0.045163122418
0.047040923097
0.048987093834
0.051006872278
0.053106211914
0.055291851929
0.057571395161
0.059953394693
0.062447449599
0.065064310226
0.067815993303
0.070715906934
0.073778985240
0.077021832053
0.080462872503
0.084122510675
0.088023290640
0.092190057020
0.096650109945
0.101433347587
0.106572387580
0.112102656517
0.118062434392
0.124492838604
0.131437730023
0.138943522164
0.147058874020
0.155834248244
0.165321319779
0.175572226261
0.186638661139
0.198570823402
0.211416253726
0.225218604146
0.240016405039
0.255841905916
0.272720072309
0.270734530057
0.014634263200
0.015141076693
0.015703098572
0.016320477732
0.016993090937
0.017720563622
0.018502301334
0.019337529516
0.020225339063
0.021164735019
0.022154686073
0.023194172922
0.024282234089
0.025418008335
0.026600773268
0.027829980180
0.029105285431
0.030426578947
0.031794010515
0.033208014657
0.034669334855
0.036179047937
0.037738589384
0.039349780276
0.041014856582
0.042736501450
0.044517881115
0.046362685042
0.048275170874