# vtk DataFile Version 2.0
TITLE = "Quad data"
ASCII
DATASET STRUCTURED_GRID
DIMENSIONS 14 14 1
POINTS 196 FLOAT
0.000000 0.000000 0.000000
0.000000 0.076923 0.000000
0.000000 0.153846 0.000000
0.000000 0.230769 0.000000
0.000000 0.307692 0.000000
0.000000 0.384615 0.000000
0.000000 0.461538 0.000000
0.000000 0.538462 0.000000
0.000000 0.615385 0.000000
0.000000 0.692308 0.000000
0.000000 0.769231 0.000000
0.000000 0.846154 0.000000
0.000000 0.923077 0.000000
0.000000 1.000000 0.000000
0.076923 0.000000 0.000000
0.076923 0.076923 0.000000
0.076923 0.153846 0.000000
0.076923 0.230769 0.000000
0.076923 0.307692 0.000000
0.076923 0.384615 0.000000
0.076923 0.461538 0.000000
0.076923 0.538462 0.000000
0.076923 0.615385 0.000000
0.076923 0.692308 0.000000
0.076923 0.769231 0.000000
0.076923 0.846154 0.000000
0.076923 0.923077 0.000000
0.076923 1.000000 0.000000
0.153846 0.000000 0.000000
0.153846 0.076923 0.000000
0.153846 0.153846 0.000000
0.153846 0.230769 0.000000
0.153846 0.307692 0.000000
0.153846 0.384615 0.000000
0.153846 0.461538 0.000000
0.153846 0.538462 0.000000
0.153846 0.615385 0.000000
0.153846 0.692308 0.000000
0.153846 0.769231 0.000000
0.153846 0.846154 0.000000
0.153846 0.923077 0.000000
0.153846 1.000000 0.000000
0.230769 0.000000 0.000000
0.230769 0.076923 0.000000
0.230769 0.153846 0.000000
0.230769 0.230769 0.000000
0.230769 0.307692 0.000000
0.230769 0.384615 0.000000
0.230769 0.461538 0.000000
0.230769 0.538462 0.000000
0.230769 0.615385 0.000000
0.230769 0.692308 0.000000
0.230769 0.769231 0.000000
0.230769 0.846154 0.000000
0.230769 0.923077 0.000000
0.230769 1.000000 0.000000
0.307692 0.000000 0.000000
0.307692 0.076923 0.000000
0.307692 0.153846 0.000000
0.307692 0.230769 0.000000
0.307692 0.307692 0.000000
0.307692 0.384615 0.000000
0.307692 0.461538 0.000000
0.307692 0.538462 0.000000
0.307692 0.615385 0.000000
0.307692 0.692308 0.000000
0.307692 0.769231 0.000000
0.307692 0.846154 0.000000
0.307692 0.923077 0.000000
0.307692 1.000000 0.000000
0.384615 0.000000 0.000000
0.384615 0.076923 0.000000
0.384615 0.153846 0.000000
0.384615 0.230769 0.000000
0.384615 0.307692 0.000000
0.384615 0.384615 0.000000
0.384615 0.461538 0.000000
0.384615 0.538462 0.000000
0.384615 0.615385 0.000000
0.384615 0.692308 0.000000
0.384615 0.769231 0.000000
0.384615 0.846154 0.000000
0.384615 0.923077 0.000000
0.384615 1.000000 0.000000
0.461538 0.000000 0.000000
0.461538 0.076923 0.000000
0.461538 0.153846 0.000000
0.461538 0.230769 0.000000
0.461538 0.307692 0.000000
0.461538 0.384615 0.000000
0.461538 0.461538 0.000000
0.461538 0.538462 0.000000
0.461538 0.615385 0.000000
0.461538 0.692308 0.000000
0.461538 0.769231 0.000000
0.461538 0.846154 0.000000
0.461538 0.923077 0.000000
0.461538 1.000000 0.000000
0.538462 0.000000 0.000000
0.538462 0.076923 0.000000
0.538462 0.153846 0.000000
0.538462 0.230769 0.000000
0.538462 0.307692 0.000000
0.538462 0.384615 0.000000
0.538462 0.461538 0.000000
0.538462 0.538462 0.000000
0.538462 0.615385 0.000000
0.538462 0.692308 0.000000
0.538462 0.769231 0.000000
0.538462 0.846154 0.000000
0.538462 0.923077 0.000000
0.538462 1.000000 0.000000
0.615385 0.000000 0.000000
0.615385 0.076923 0.000000
0.615385 0.153846 0.000000
0.615385 0.230769 0.000000
0.615385 0.307692 0.000000
0.615385 0.384615 0.000000
0.615385 0.461538 0.000000
0.615385 0.538462 0.000000
0.615385 0.615385 0.000000
0.615385 0.692308 0.000000
0.615385 0.769231 0.000000
0.615385 0.846154 0.000000
0.615385 0.923077 0.000000
0.615385 1.000000 0.000000
0.692308 0.000000 0.000000
0.692308 0.076923 0.000000
0.692308 0.153846 0.000000
0.692308 0.230769 0.000000
0.692308 0.307692 0.000000
0.692308 0.384615 0.000000
0.692308 0.461538 0.000000
0.692308 0.538462 0.000000
0.692308 0.615385 0.000000
0.692308 0.692308 0.000000
0.692308 0.769231 0.000000
0.692308 0.846154 0.000000
0.692308 0.923077 0.000000
0.692308 1.000000 0.000000
0.769231 0.000000 0.000000
0.769231 0.076923 0.000000
0.769231 0.153846 0.000000
0.769231 0.230769 0.000000
0.769231 0.307692 0.000000
0.769231 0.384615 0.000000
0.769231 0.461538 0.000000
0.769231 0.538462 0.000000
0.769231 0.615385 0.000000
0.769231 0.692308 0.000000
0.769231 0.769231 0.000000
0.769231 0.846154 0.000000
0.769231 0.923077 0.000000
0.769231 1.000000 0.000000
0.846154 0.000000 0.000000
0.846154 0.076923 0.000000
0.846154 0.153846 0.000000
0.846154 0.230769 0.000000
0.846154 0.307692 0.000000
0.846154 0.384615 0.000000
0.846154 0.461538 0.000000
0.846154 0.538462 0.000000
0.846154 0.615385 0.000000
0.846154 0.692308 0.000000
0.846154 0.769231 0.000000
0.846154 0.846154 0.000000
0.846154 0.923077 0.000000
0.846154 1.000000 0.000000
0.923077 0.000000 0.000000
0.923077 0.076923 0.000000
0.923077 0.153846 0.000000
0.923077 0.230769 0.000000
0.923077 0.307692 0.000000
0.923077 0.384615 0.000000
0.923077 0.461538 0.000000
0.923077 0.538462 0.000000
0.923077 0.615385 0.000000
0.923077 0.692308 0.000000
0.923077 0.769231 0.000000
0.923077 0.846154 0.000000
0.923077 0.923077 0.000000
0.923077 1.000000 0.000000
1.000000 0.000000 0.000000
1.000000 0.076923 0.000000
1.000000 0.153846 0.000000
1.000000 0.230769 0.000000
1.000000 0.307692 0.000000
1.000000 0.384615 0.000000
1.000000 0.461538 0.000000
1.000000 0.538462 0.000000
1.000000 0.615385 0.000000
1.000000 0.692308 0.000000
1.000000 0.769231 0.000000
1.000000 0.846154 0.000000
1.000000 0.923077 0.000000
1.000000 1.000000 0.000000
POINT_DATA 196
SCALARS phi FLOAT 1
LOOKUP_TABLE default
0.000000000000
0.000035012780
0.000560204475
0.002836035153
0.008963271594
0.021882987290
0.045376562445
0.084065683975
0.143412345506
0.229718847379
0.350127796646
0.512622107069
0.726024999125
1.000000000000
0.000035012780
0.000062935214
0.000090857617
0.001406831132
0.006124370384
0.017191131550
0.038391966863
0.074350091576
0.130527499310
0.213224962114
0.329581614984
0.487573788894
0.696011956590
0.964532054200
0.000560204475
0.000090857617
-0.001666540488
-0.003423938462
-0.003063752776
0.002365201616
0.016650081909
0.044415216168
0.091122598089
0.163071886730
0.267399912322
0.412079476910
0.605916984154
0.858548370155
0.002836035153
0.001406831132
-0.003423938462
-0.010372291566
-0.017320644739
-0.021316654092
-0.018572057017
-0.004461906841
0.026475790128
0.080540074421
0.164866670657
0.287427222286
0.457028132977
0.683309407934
0.008963271594
0.006124370384
-0.003063752776
-0.017320644739
-0.034529880483
-0.051739116257
-0.065159749120
-0.070166576641
-0.061297605161
-0.032254049851
0.024099473593
0.115734608625
0.251458917490
0.440915934316
0.021882987290
0.017191131550
0.002365201616
-0.021316654092
-0.051739116257
-0.085950181439
-0.120161246582
-0.149747045434
-0.169245584289
-0.172358142263
-0.151949335047
-0.100047178893
-0.007843005905
0.134309022793
0.045376562445
0.038391966863
0.016650081909
-0.018572057017
-0.065159749120
-0.120161246582
-0.179788010361
-0.239414774144
-0.293579544271
-0.335983599852
-0.359491492652
-0.356130983173
-0.317092785057
-0.232729946430
0.084065683975
0.074350091576
0.044415216168
-0.004461906841
-0.070166576641
-0.149747045434
-0.239414774144
-0.334544496498
-0.429674218843
-0.518505220268
-0.593902052497
-0.647892476126
-0.671667204721
-0.655579286440
0.143412345506
0.130527499310
0.091122598089
0.026475790128
-0.061297605161
-0.169245584289
-0.293579544271
-0.429674218843
-0.572067614338
-0.714461009802
-0.849719020977
-0.969869664081
-1.066104271270
-1.128777003606
0.229718847379
0.213224962114
0.163071886730
0.080540074421
-0.032254049851
-0.172358142263
-0.335983599852
-0.518505220268
-0.714461009802
-0.917552183668
-1.120643357529
-1.315762887962
-1.494103212673
-1.646020797591
0.350127796646
0.329581614984
0.267399912322
0.164866670657
0.024099473593
-0.151949335047
-0.359491492652
-0.593902052497
-0.849719020977
-1.120643357529
-1.399539337537
-1.678435317529
-1.948524893877
-2.200168061342
0.512622107069
0.487573788894
0.412079476910
0.287427222286
0.115734608625
-0.100047178893
-0.356130983173
-0.647892476126
-0.969869664081
-1.315762887962
-1.678435317529
-2.049914150748
-2.421392983972
-2.783235881097
0.726024999125
0.696011956590
0.605916984154
0.457028132977
0.251458917490
-0.007843005905
-0.317092785057
-0.671667204721
-1.066104271270
-1.494103212673
-1.948524893877
-2.421392983972
-2.903897010180
-3.386401036378
1.000000000000
0.964532054200
0.858548370155
0.683309407934
0.440915934316
0.134309022793
-0.232729946430
-0.655579286440
-1.128777003606
-1.646020797591
-2.200168061342
-2.783235881097
-3.386401036378
-4.000000000000
