# vtk DataFile Version 2.0
TITLE = "Quad data"
ASCII
DATASET STRUCTURED_GRID
DIMENSIONS 14 14 1
POINTS 196 FLOAT
0.000000 0.000000 0.000000
0.000000 0.076923 0.000000
0.000000 0.153846 0.000000
0.000000 0.230769 0.000000
0.000000 0.307692 0.000000
0.000000 0.384615 0.000000
0.000000 0.461538 0.000000
0.000000 0.538462 0.000000
0.000000 0.615385 0.000000
0.000000 0.692308 0.000000
0.000000 0.769231 0.000000
0.000000 0.846154 0.000000
0.000000 0.923077 0.000000
0.000000 1.000000 0.000000
0.076923 0.000000 0.000000
0.076923 0.076923 0.000000
0.076923 0.153846 0.000000
0.076923 0.230769 0.000000
0.076923 0.307692 0.000000
0.076923 0.384615 0.000000
0.076923 0.461538 0.000000
0.076923 0.538462 0.000000
0.076923 0.615385 0.000000
0.076923 0.692308 0.000000
0.076923 0.769231 0.000000
0.076923 0.846154 0.000000
0.076923 0.923077 0.000000
0.076923 1.000000 0.000000
0.153846 0.000000 0.000000
0.153846 0.076923 0.000000
0.153846 0.153846 0.000000
0.153846 0.230769 0.000000
0.153846 0.307692 0.000000
0.153846 0.384615 0.000000
0.153846 0.461538 0.000000
0.153846 0.538462 0.000000
0.153846 0.615385 0.000000
0.153846 0.692308 0.000000
0.153846 0.769231 0.000000
0.153846 0.846154 0.000000
0.153846 0.923077 0.000000
0.153846 1.000000 0.000000
0.230769 0.000000 0.000000
0.230769 0.076923 0.000000
0.230769 0.153846 0.000000
0.230769 0.230769 0.000000
0.230769 0.307692 0.000000
0.230769 0.384615 0.000000
0.230769 0.461538 0.000000
0.230769 0.538462 0.000000
0.230769 0.615385 0.000000
0.230769 0.692308 0.000000
0.230769 0.769231 0.000000
0.230769 0.846154 0.000000
0.230769 0.923077 0.000000
0.230769 1.000000 0.000000
0.307692 0.000000 0.000000
0.307692 0.076923 0.000000
0.307692 0.153846 0.000000
0.307692 0.230769 0.000000
0.307692 0.307692 0.000000
0.307692 0.384615 0.000000
0.307692 0.461538 0.000000
0.307692 0.538462 0.000000
0.307692 0.615385 0.000000
0.307692 0.692308 0.000000
0.307692 0.769231 0.000000
0.307692 0.846154 0.000000
0.307692 0.923077 0.000000
0.307692 1.000000 0.000000
0.384615 0.000000 0.000000
0.384615 0.076923 0.000000
0.384615 0.153846 0.000000
0.384615 0.230769 0.000000
0.384615 0.307692 0.000000
0.384615 0.384615 0.000000
0.384615 0.461538 0.000000
0.384615 0.538462 0.000000
0.384615 0.615385 0.000000
0.384615 0.692308 0.000000
0.384615 0.769231 0.000000
0.384615 0.846154 0.000000
0.384615 0.923077 0.000000
0.384615 1.000000 0.000000
0.461538 0.000000 0.000000
0.461538 0.076923 0.000000
0.461538 0.153846 0.000000
0.461538 0.230769 0.000000
0.461538 0.307692 0.000000
0.461538 0.384615 0.000000
0.461538 0.461538 0.000000
0.461538 0.538462 0.000000
0.461538 0.615385 0.000000
0.461538 0.692308 0.000000
0.461538 0.769231 0.000000
0.461538 0.846154 0.000000
0.461538 0.923077 0.000000
0.461538 1.000000 0.000000
0.538462 0.000000 0.000000
0.538462 0.076923 0.000000
0.538462 0.153846 0.000000
0.538462 0.230769 0.000000
0.538462 0.307692 0.000000
0.538462 0.384615 0.000000
0.538462 0.461538 0.000000
0.538462 0.538462 0.000000
0.538462 0.615385 0.000000
0.538462 0.692308 0.000000
0.538462 0.769231 0.000000
0.538462 0.846154 0.000000
0.538462 0.923077 0.000000
0.538462 1.000000 0.000000
0.615385 0.000000 0.000000
0.615385 0.076923 0.000000
0.615385 0.153846 0.000000
0.615385 0.230769 0.000000
0.615385 0.307692 0.000000
0.615385 0.384615 0.000000
0.615385 0.461538 0.000000
0.615385 0.538462 0.000000
0.615385 0.615385 0.000000
0.615385 0.692308 0.000000
0.615385 0.769231 0.000000
0.615385 0.846154 0.000000
0.615385 0.923077 0.000000
0.615385 1.000000 0.000000
0.692308 0.000000 0.000000
0.692308 0.076923 0.000000
0.692308 0.153846 0.000000
0.692308 0.230769 0.000000
0.692308 0.307692 0.000000
0.692308 0.384615 0.000000
0.692308 0.461538 0.000000
0.692308 0.538462 0.000000
0.692308 0.615385 0.000000
0.692308 0.692308 0.000000
0.692308 0.769231 0.000000
0.692308 0.846154 0.000000
0.692308 0.923077 0.000000
0.692308 1.000000 0.000000
0.769231 0.000000 0.000000
0.769231 0.076923 0.000000
0.769231 0.153846 0.000000
0.769231 0.230769 0.000000
0.769231 0.307692 0.000000
0.769231 0.384615 0.000000
0.769231 0.461538 0.000000
0.769231 0.538462 0.000000
0.769231 0.615385 0.000000
0.769231 0.692308 0.000000
0.769231 0.769231 0.000000
0.769231 0.846154 0.000000
0.769231 0.923077 0.000000
0.769231 1.000000 0.000000
0.846154 0.000000 0.000000
0.846154 0.076923 0.000000
0.846154 0.153846 0.000000
0.846154 0.230769 0.000000
0.846154 0.307692 0.000000
0.846154 0.384615 0.000000
0.846154 0.461538 0.000000
0.846154 0.538462 0.000000
0.846154 0.615385 0.000000
0.846154 0.692308 0.000000
0.846154 0.769231 0.000000
0.846154 0.846154 0.000000
0.846154 0.923077 0.000000
0.846154 1.000000 0.000000
0.923077 0.000000 0.000000
0.923077 0.076923 0.000000
0.923077 0.153846 0.000000
0.923077 0.230769 0.000000
0.923077 0.307692 0.000000
0.923077 0.384615 0.000000
0.923077 0.461538 0.000000
0.923077 0.538462 0.000000
0.923077 0.615385 0.000000
0.923077 0.692308 0.000000
0.923077 0.769231 0.000000
0.923077 0.846154 0.000000
0.923077 0.923077 0.000000
0.923077 1.000000 0.000000
1.000000 0.000000 0.000000
1.000000 0.076923 0.000000
1.000000 0.153846 0.000000
1.000000 0.230769 0.000000
1.000000 0.307692 0.000000
1.000000 0.384615 0.000000
1.000000 0.461538 0.000000
1.000000 0.538462 0.000000
1.000000 0.615385 0.000000
1.000000 0.692308 0.000000
1.000000 0.769231 0.000000
1.000000 0.846154 0.000000
1.000000 0.923077 0.000000
1.000000 1.000000 0.000000
POINT_DATA 196
SCALARS phi FLOAT 1
LOOKUP_TABLE default
0.000000000000
0.000035012780
0.000560204475
0.002836035153
0.008963271594
0.021882987290
0.045376562445
0.084065683975
0.143412345506
0.229718847379
0.350127796646
0.512622107069
0.726024999125
1.000000000000
0.000035012780
-0.000140051119
-0.000245089458
0.000980357831
0.005637057526
0.016666083120
0.037848814817
0.073806939533
0.130002450895
0.212737649242
0.329155141627
0.487237841812
0.695808970274
0.964532054200
0.000560204475
-0.000245089458
-0.002240817899
-0.004166520780
-0.003921431322
0.001435523966
0.015685725290
0.043450859564
0.090192920416
0.162214208186
0.266657329925
0.411505199398
0.605581037079
0.858548370155
0.002836035153
0.000980357831
-0.004166520780
-0.011344140611
-0.018451734883
-0.022548230104
-0.019852246070
-0.005742095865
0.025244214138
0.079408984279
0.163894821610
0.286684639894
0.456601659606
0.683309407934
0.008963271594
0.005637057526
-0.003921431322
-0.018451734883
-0.035853086377
-0.053184412310
-0.066664332481
-0.071671159973
-0.062742901159
-0.033577255698
0.022968383460
0.114876930079
0.250971604636
0.440915934316
0.021882987290
0.016666083120
0.001435523966
-0.022548230104
-0.053184412310
-0.087531949161
-0.121809460453
-0.151395259270
-0.170827351983
-0.173803438255
-0.153180911033
-0.100976856553
-0.008368054340
0.134309022793
0.045376562445
0.037848814817
0.015685725290
-0.019852246070
-0.066664332481
-0.121809460453
-0.181506249781
-0.241133013550
-0.295227758132
-0.337488183187
-0.360771681664
-0.357095339799
-0.317635937117
-0.232729946430
0.084065683975
0.073806939533
0.043450859564
-0.005742095865
-0.071671159973
-0.151395259270
-0.241133013550
-0.336262735899
-0.431322432688
-0.520009803578
-0.595182241518
-0.648856832744
-0.672210356780
-0.655579286440
0.143412345506
0.130002450895
0.090192920416
0.025244214138
-0.062742901159
-0.170827351983
-0.295227758132
-0.431322432688
-0.573649382024
-0.715906305802
-0.850950596968
-0.970799341760
-1.066629319702
-1.128777003606
0.229718847379
0.212737649242
0.162214208186
0.079408984279
-0.033577255698
-0.173803438255
-0.337488183187
-0.520009803578
-0.715906305802
-0.918875389517
-1.121774447673
-1.316620566507
-1.494590525542
-1.646020797591
0.350127796646
0.329155141627
0.266657329925
0.163894821610
0.022968383460
-0.153180911033
-0.360771681664
-0.595182241518
-0.850950596968
-1.121774447673
-1.400511186583
-1.679177899933
-1.948951367249
-2.200168061342
0.512622107069
0.487237841812
0.411505199398
0.286684639894
0.114876930079
-0.100976856553
-0.357095339799
-0.648856832744
-0.970799341760
-1.316620566507
-1.679177899933
-2.050488428276
-2.421728931060
-2.783235881097
0.726024999125
0.695808970274
0.605581037079
0.456601659606
0.250971604636
-0.008368054340
-0.317635937117
-0.672210356780
-1.066629319702
-1.494590525542
-1.948951367249
-2.421728931060
-2.904099996499
-3.386401036378
1.000000000000
0.964532054200
0.858548370155
0.683309407934
0.440915934316
0.134309022793
-0.232729946430
-0.655579286440
-1.128777003606
-1.646020797591
-2.200168061342
-2.783235881097
-3.386401036378
-4.000000000000
