# vtk DataFile Version 2.0
TITLE = "Quad data"
ASCII
DATASET STRUCTURED_GRID
DIMENSIONS 14 14 1
POINTS 196 FLOAT
0.000000 0.000000 0.000000
0.000000 0.076923 0.000000
0.000000 0.153846 0.000000
0.000000 0.230769 0.000000
0.000000 0.307692 0.000000
0.000000 0.384615 0.000000
0.000000 0.461538 0.000000
0.000000 0.538462 0.000000
0.000000 0.615385 0.000000
0.000000 0.692308 0.000000
0.000000 0.769231 0.000000
0.000000 0.846154 0.000000
0.000000 0.923077 0.000000
0.000000 1.000000 0.000000
0.076923 0.000000 0.000000
0.076923 0.076923 0.000000
0.076923 0.153846 0.000000
0.076923 0.230769 0.000000
0.076923 0.307692 0.000000
0.076923 0.384615 0.000000
0.076923 0.461538 0.000000
0.076923 0.538462 0.000000
0.076923 0.615385 0.000000
0.076923 0.692308 0.000000
0.076923 0.769231 0.000000
0.076923 0.846154 0.000000
0.076923 0.923077 0.000000
0.076923 1.000000 0.000000
0.153846 0.000000 0.000000
0.153846 0.076923 0.000000
0.153846 0.153846 0.000000
0.153846 0.230769 0.000000
0.153846 0.307692 0.000000
0.153846 0.384615 0.000000
0.153846 0.461538 0.000000
0.153846 0.538462 0.000000
0.153846 0.615385 0.000000
0.153846 0.692308 0.000000
0.153846 0.769231 0.000000
0.153846 0.846154 0.000000
0.153846 0.923077 0.000000
0.153846 1.000000 0.000000
0.230769 0.000000 0.000000
0.230769 0.076923 0.000000
0.230769 0.153846 0.000000
0.230769 0.230769 0.000000
0.230769 0.307692 0.000000
0.230769 0.384615 0.000000
0.230769 0.461538 0.000000
0.230769 0.538462 0.000000
0.230769 0.615385 0.000000
0.230769 0.692308 0.000000
0.230769 0.769231 0.000000
0.230769 0.846154 0.000000
0.230769 0.923077 0.000000
0.230769 1.000000 0.000000
0.307692 0.000000 0.000000
0.307692 0.076923 0.000000
0.307692 0.153846 0.000000
0.307692 0.230769 0.000000
0.307692 0.307692 0.000000
0.307692 0.384615 0.000000
0.307692 0.461538 0.000000
0.307692 0.538462 0.000000
0.307692 0.615385 0.000000
0.307692 0.692308 0.000000
0.307692 0.769231 0.000000
0.307692 0.846154 0.000000
0.307692 0.923077 0.000000
0.307692 1.000000 0.000000
0.384615 0.000000 0.000000
0.384615 0.076923 0.000000
0.384615 0.153846 0.000000
0.384615 0.230769 0.000000
0.384615 0.307692 0.000000
0.384615 0.384615 0.000000
0.384615 0.461538 0.000000
0.384615 0.538462 0.000000
0.384615 0.615385 0.000000
0.384615 0.692308 0.000000
0.384615 0.769231 0.000000
0.384615 0.846154 0.000000
0.384615 0.923077 0.000000
0.384615 1.000000 0.000000
0.461538 0.000000 0.000000
0.461538 0.076923 0.000000
0.461538 0.153846 0.000000
0.461538 0.230769 0.000000
0.461538 0.307692 0.000000
0.461538 0.384615 0.000000
0.461538 0.461538 0.000000
0.461538 0.538462 0.000000
0.461538 0.615385 0.000000
0.461538 0.692308 0.000000
0.461538 0.769231 0.000000
0.461538 0.846154 0.000000
0.461538 0.923077 0.000000
0.461538 1.000000 0.000000
0.538462 0.000000 0.000000
0.538462 0.076923 0.000000
0.538462 0.153846 0.000000
0.538462 0.230769 0.000000
0.538462 0.307692 0.000000
0.538462 0.384615 0.000000
0.538462 0.461538 0.000000
0.538462 0.538462 0.000000
0.538462 0.615385 0.000000
0.538462 0.692308 0.000000
0.538462 0.769231 0.000000
0.538462 0.846154 0.000000
0.538462 0.923077 0.000000
0.538462 1.000000 0.000000
0.615385 0.000000 0.000000
0.615385 0.076923 0.000000
0.615385 0.153846 0.000000
0.615385 0.230769 0.000000
0.615385 0.307692 0.000000
0.615385 0.384615 0.000000
0.615385 0.461538 0.000000
0.615385 0.538462 0.000000
0.615385 0.615385 0.000000
0.615385 0.692308 0.000000
0.615385 0.769231 0.000000
0.615385 0.846154 0.000000
0.615385 0.923077 0.000000
0.615385 1.000000 0.000000
0.692308 0.000000 0.000000
0.692308 0.076923 0.000000
0.692308 0.153846 0.000000
0.692308 0.230769 0.000000
0.692308 0.307692 0.000000
0.692308 0.384615 0.000000
0.692308 0.461538 0.000000
0.692308 0.538462 0.000000
0.692308 0.615385 0.000000
0.692308 0.692308 0.000000
0.692308 0.769231 0.000000
0.692308 0.846154 0.000000
0.692308 0.923077 0.000000
0.692308 1.000000 0.000000
0.769231 0.000000 0.000000
0.769231 0.076923 0.000000
0.769231 0.153846 0.000000
0.769231 0.230769 0.000000
0.769231 0.307692 0.000000
0.769231 0.384615 0.000000
0.769231 0.461538 0.000000
0.769231 0.538462 0.000000
0.769231 0.615385 0.000000
0.769231 0.692308 0.000000
0.769231 0.769231 0.000000
0.769231 0.846154 0.000000
0.769231 0.923077 0.000000
0.769231 1.000000 0.000000
0.846154 0.000000 0.000000
0.846154 0.076923 0.000000
0.846154 0.153846 0.000000
0.846154 0.230769 0.000000
0.846154 0.307692 0.000000
0.846154 0.384615 0.000000
0.846154 0.461538 0.000000
0.846154 0.538462 0.000000
0.846154 0.615385 0.000000
0.846154 0.692308 0.000000
0.846154 0.769231 0.000000
0.846154 0.846154 0.000000
0.846154 0.923077 0.000000
0.846154 1.000000 0.000000
0.923077 0.000000 0.000000
0.923077 0.076923 0.000000
0.923077 0.153846 0.000000
0.923077 0.230769 0.000000
0.923077 0.307692 0.000000
0.923077 0.384615 0.000000
0.923077 0.461538 0.000000
0.923077 0.538462 0.000000
0.923077 0.615385 0.000000
0.923077 0.692308 0.000000
0.923077 0.769231 0.000000
0.923077 0.846154 0.000000
0.923077 0.923077 0.000000
0.923077 1.000000 0.000000
1.000000 0.000000 0.000000
1.000000 0.076923 0.000000
1.000000 0.153846 0.000000
1.000000 0.230769 0.000000
1.000000 0.307692 0.000000
1.000000 0.384615 0.000000
1.000000 0.461538 0.000000
1.000000 0.538462 0.000000
1.000000 0.615385 0.000000
1.000000 0.692308 0.000000
1.000000 0.769231 0.000000
1.000000 0.846154 0.000000
1.000000 0.923077 0.000000
1.000000 1.000000 0.000000
POINT_DATA 196
SCALARS phi FLOAT 1
LOOKUP_TABLE default
0.000000000000
0.000035012780
0.000560204475
0.002836035153
0.008963271594
0.021882987290
0.045376562445
0.084065683975
0.143412345506
0.229718847379
0.350127796646
0.512622107069
0.726024999125
1.000000000000
0.000035012780
0.000062945716
0.000090878012
0.001406860319
0.006124406512
0.017191172598
0.038392010455
0.074350135168
0.130527540371
0.213224998236
0.329581644104
0.487573809295
0.696011967100
0.964532054200
0.000560204475
0.000090878012
-0.001666500755
-0.003423881857
-0.003063682617
0.002365281352
0.016650166536
0.044415300813
0.091122677800
0.163071956893
0.267399968857
0.412079516537
0.605917004565
0.858548370155
0.002836035153
0.001406860319
-0.003423881857
-0.010372210898
-0.017320544637
-0.021316540384
-0.018571936297
-0.004461786090
0.026475903860
0.080540174524
0.164866751321
0.287427278824
0.457028162072
0.683309407934
0.008963271594
0.006124406512
-0.003063682617
-0.017320544637
-0.034529756293
-0.051738975163
-0.065159599287
-0.070166426783
-0.061297464014
-0.032253925611
0.024099573711
0.115734678778
0.251458953650
0.440915934316
0.021882987290
0.017191172598
0.002365281352
-0.021316540384
-0.051738975163
-0.085950021088
-0.120161076329
-0.149746875151
-0.169245423905
-0.172358001089
-0.151949221325
-0.100047099140
-0.007842964889
0.134309022793
0.045376562445
0.038392010455
0.016650166536
-0.018571936297
-0.065159599287
-0.120161076329
-0.179787829594
-0.239414593371
-0.293579374003
-0.335983450025
-0.359491371855
-0.356130898598
-0.317092741468
-0.232729946430
0.084065683975
0.074350135168
0.044415300813
-0.004461786090
-0.070166426783
-0.149746875151
-0.239414593371
-0.334544315710
-0.429674048599
-0.518505070322
-0.593901931805
-0.647892391456
-0.671667161136
-0.655579286440
0.143412345506
0.130527540371
0.091122677800
0.026475903860
-0.061297464014
-0.169245423905
-0.293579374003
-0.429674048599
-0.572067453875
-0.714460868727
-0.849718907199
-0.969869584377
-1.066104230237
-1.128777003606
0.229718847379
0.213224998236
0.163071956893
0.080540174524
-0.032253925611
-0.172358001089
-0.335983450025
-0.518505070322
-0.714460868727
-0.917552059381
-1.120643257435
-1.315762817816
-1.494103176547
-1.646020797591
0.350127796646
0.329581644104
0.267399968857
0.164866751321
0.024099573711
-0.151949221325
-0.359491371855
-0.593901931805
-0.849718907199
-1.120643257435
-1.399539256888
-1.678435260998
-1.948524864766
-2.200168061342
0.512622107069
0.487573809295
0.412079516537
0.287427278824
0.115734678778
-0.100047099140
-0.356130898598
-0.647892391456
-0.969869584377
-1.315762817816
-1.678435260998
-2.049914111132
-2.421392963577
-2.783235881097
0.726024999125
0.696011967100
0.605917004565
0.457028162072
0.251458953650
-0.007842964889
-0.317092741468
-0.671667161136
-1.066104230237
-1.494103176547
-1.948524864766
-2.421392963577
-2.903896999673
-3.386401036378
1.000000000000
0.964532054200
0.858548370155
0.683309407934
0.440915934316
0.134309022793
-0.232729946430
-0.655579286440
-1.128777003606
-1.646020797591
-2.200168061342
-2.783235881097
-3.386401036378
-4.000000000000
