# vtk DataFile Version 2.0
TITLE = "Quad data"
ASCII
DATASET STRUCTURED_GRID
DIMENSIONS 33 33 1
POINTS 1089 FLOAT
0.000000 0.000000 0.000000
0.000000 0.031250 0.000000
0.000000 0.062500 0.000000
0.000000 0.093750 0.000000
0.000000 0.125000 0.000000
0.000000 0.156250 0.000000
0.000000 0.187500 0.000000
0.000000 0.218750 0.000000
0.000000 0.250000 0.000000
0.000000 0.281250 0.000000
0.000000 0.312500 0.000000
0.000000 0.343750 0.000000
0.000000 0.375000 0.000000
0.000000 0.406250 0.000000
0.000000 0.437500 0.000000
0.000000 0.468750 0.000000
0.000000 0.500000 0.000000
0.000000 0.531250 0.000000
0.000000 0.562500 0.000000
0.000000 0.593750 0.000000
0.000000 0.625000 0.000000
0.000000 0.656250 0.000000
0.000000 0.687500 0.000000
0.000000 0.718750 0.000000
0.000000 0.750000 0.000000
0.000000 0.781250 0.000000
0.000000 0.812500 0.000000
0.000000 0.843750 0.000000
0.000000 0.875000 0.000000
0.000000 0.906250 0.000000
0.000000 0.937500 0.000000
0.000000 0.968750 0.000000
0.000000 1.000000 0.000000
0.031250 0.000000 0.000000
0.031250 0.031250 0.000000
0.031250 0.062500 0.000000
0.031250 0.093750 0.000000
0.031250 0.125000 0.000000
0.031250 0.156250 0.000000
0.031250 0.187500 0.000000
0.031250 0.218750 0.000000
0.031250 0.250000 0.000000
0.031250 0.281250 0.000000
0.031250 0.312500 0.000000
0.031250 0.343750 0.000000
0.031250 0.375000 0.000000
0.031250 0.406250 0.000000
0.031250 0.437500 0.000000
0.031250 0.468750 0.000000
0.031250 0.500000 0.000000
0.031250 0.531250 0.000000
0.031250 0.562500 0.000000
0.031250 0.593750 0.000000
0.031250 0.625000 0.000000
0.031250 0.656250 0.000000
0.031250 0.687500 0.000000
0.031250 0.718750 0.000000
0.031250 0.750000 0.000000
0.031250 0.781250 0.000000
0.031250 0.812500 0.000000
0.031250 0.843750 0.000000
0.031250 0.875000 0.000000
0.031250 0.906250 0.000000
0.031250 0.937500 0.000000
0.031250 0.968750 0.000000
0.031250 1.000000 0.000000
0.062500 0.000000 0.000000
0.062500 0.031250 0.000000
0.062500 0.062500 0.000000
0.062500 0.093750 0.000000
0.062500 0.125000 0.000000
0.062500 0.156250 0.000000
0.062500 0.187500 0.000000
0.062500 0.218750 0.000000
0.062500 0.250000 0.000000
0.062500 0.281250 0.000000
0.062500 0.312500 0.000000
0.062500 0.343750 0.000000
0.062500 0.375000 0.000000
0.062500 0.406250 0.000000
0.062500 0.437500 0.000000
0.062500 0.468750 0.000000
0.062500 0.500000 0.000000
0.062500 0.531250 0.000000
0.062500 0.562500 0.000000
0.062500 0.593750 0.000000
0.062500 0.625000 0.000000
0.062500 0.656250 0.000000
0.062500 0.687500 0.000000
0.062500 0.718750 0.000000
0.062500 0.750000 0.000000
0.062500 0.781250 0.000000
0.062500 0.812500 0.000000
0.062500 0.843750 0.000000
0.062500 0.875000 0.000000
0.062500 0.906250 0.000000
0.062500 0.937500 0.000000
0.062500 0.968750 0.000000
0.062500 1.000000 0.000000
0.093750 0.000000 0.000000
0.093750 0.031250 0.000000
0.093750 0.062500 0.000000
0.093750 0.093750 0.000000
0.093750 0.125000 0.000000
0.093750 0.156250 0.000000
0.093750 0.187500 0.000000
0.093750 0.218750 0.000000
0.093750 0.250000 0.000000
0.093750 0.281250 0.000000
0.093750 0.312500 0.000000
0.093750 0.343750 0.000000
0.093750 0.375000 0.000000
0.093750 0.406250 0.000000
0.093750 0.437500 0.000000
0.093750 0.468750 0.000000
0.093750 0.500000 0.000000
0.093750 0.531250 0.000000
0.093750 0.562500 0.000000
0.093750 0.593750 0.000000
0.093750 0.625000 0.000000
0.093750 0.656250 0.000000
0.093750 0.687500 0.000000
0.093750 0.718750 0.000000
0.093750 0.750000 0.000000
0.093750 0.781250 0.000000
0.093750 0.812500 0.000000
0.093750 0.843750 0.000000
0.093750 0.875000 0.000000
0.093750 0.906250 0.000000
0.093750 0.937500 0.000000
0.093750 0.968750 0.000000
0.093750 1.000000 0.000000
0.125000 0.000000 0.000000
0.125000 0.031250 0.000000
0.125000 0.062500 0.000000
0.125000 0.093750 0.000000
0.125000 0.125000 0.000000
0.125000 0.156250 0.000000
0.125000 0.187500 0.000000
0.125000 0.218750 0.000000
0.125000 0.250000 0.000000
0.125000 0.281250 0.000000
0.125000 0.312500 0.000000
0.125000 0.343750 0.000000
0.125000 0.375000 0.000000
0.125000 0.406250 0.000000
0.125000 0.437500 0.000000
0.125000 0.468750 0.000000
0.125000 0.500000 0.000000
0.125000 0.531250 0.000000
0.125000 0.562500 0.000000
0.125000 0.593750 0.000000
0.125000 0.625000 0.000000
0.125000 0.656250 0.000000
0.125000 0.687500 0.000000
0.125000 0.718750 0.000000
0.125000 0.750000 0.000000
0.125000 0.781250 0.000000
0.125000 0.812500 0.000000
0.125000 0.843750 0.000000
0.125000 0.875000 0.000000
0.125000 0.906250 0.000000
0.125000 0.937500 0.000000
0.125000 0.968750 0.000000
0.125000 1.000000 0.000000
0.156250 0.000000 0.000000
0.156250 0.031250 0.000000
0.156250 0.062500 0.000000
0.156250 0.093750 0.000000
0.156250 0.125000 0.000000
0.156250 0.156250 0.000000
0.156250 0.187500 0.000000
0.156250 0.218750 0.000000
0.156250 0.250000 0.000000
0.156250 0.281250 0.000000
0.156250 0.312500 0.000000
0.156250 0.343750 0.000000
0.156250 0.375000 0.000000
0.156250 0.406250 0.000000
0.156250 0.437500 0.000000
0.156250 0.468750 0.000000
0.156250 0.500000 0.000000
0.156250 0.531250 0.000000
0.156250 0.562500 0.000000
0.156250 0.593750 0.000000
0.156250 0.625000 0.000000
0.156250 0.656250 0.000000
0.156250 0.687500 0.000000
0.156250 0.718750 0.000000
0.156250 0.750000 0.000000
0.156250 0.781250 0.000000
0.156250 0.812500 0.000000
0.156250 0.843750 0.000000
0.156250 0.875000 0.000000
0.156250 0.906250 0.000000
0.156250 0.937500 0.000000
0.156250 0.968750 0.000000
0.156250 1.000000 0.000000
0.187500 0.000000 0.000000
0.187500 0.031250 0.000000
0.187500 0.062500 0.000000
0.187500 0.093750 0.000000
0.187500 0.125000 0.000000
0.187500 0.156250 0.000000
0.187500 0.187500 0.000000
0.187500 0.218750 0.000000
0.187500 0.250000 0.000000
0.187500 0.281250 0.000000
0.187500 0.312500 0.000000
0.187500 0.343750 0.000000
0.187500 0.375000 0.000000
0.187500 0.406250 0.000000
0.187500 0.437500 0.000000
0.187500 0.468750 0.000000
0.187500 0.500000 0.000000
0.187500 0.531250 0.000000
0.187500 0.562500 0.000000
0.187500 0.593750 0.000000
0.187500 0.625000 0.000000
0.187500 0.656250 0.000000
0.187500 0.687500 0.000000
0.187500 0.718750 0.000000
0.187500 0.750000 0.000000
0.187500 0.781250 0.000000
0.187500 0.812500 0.000000
0.187500 0.843750 0.000000
0.187500 0.875000 0.000000
0.187500 0.906250 0.000000
0.187500 0.937500 0.000000
0.187500 0.968750 0.000000
0.187500 1.000000 0.000000
0.218750 0.000000 0.000000
0.218750 0.031250 0.000000
0.218750 0.062500 0.000000
0.218750 0.093750 0.000000
0.218750 0.125000 0.000000
0.218750 0.156250 0.000000
0.218750 0.187500 0.000000
0.218750 0.218750 0.000000
0.218750 0.250000 0.000000
0.218750 0.281250 0.000000
0.218750 0.312500 0.000000
0.218750 0.343750 0.000000
0.218750 0.375000 0.000000
0.218750 0.406250 0.000000
0.218750 0.437500 0.000000
0.218750 0.468750 0.000000
0.218750 0.500000 0.000000
0.218750 0.531250 0.000000
0.218750 0.562500 0.000000
0.218750 0.593750 0.000000
0.218750 0.625000 0.000000
0.218750 0.656250 0.000000
0.218750 0.687500 0.000000
0.218750 0.718750 0.000000
0.218750 0.750000 0.000000
0.218750 0.781250 0.000000
0.218750 0.812500 0.000000
0.218750 0.843750 0.000000
0.218750 0.875000 0.000000
0.218750 0.906250 0.000000
0.218750 0.937500 0.000000
0.218750 0.968750 0.000000
0.218750 1.000000 0.000000
0.250000 0.000000 0.000000
0.250000 0.031250 0.000000
0.250000 0.062500 0.000000
0.250000 0.093750 0.000000
0.250000 0.125000 0.000000
0.250000 0.156250 0.000000
0.250000 0.187500 0.000000
0.250000 0.218750 0.000000
0.250000 0.250000 0.000000
0.250000 0.281250 0.000000
0.250000 0.312500 0.000000
0.250000 0.343750 0.000000
0.250000 0.375000 0.000000
0.250000 0.406250 0.000000
0.250000 0.437500 0.000000
0.250000 0.468750 0.000000
0.250000 0.500000 0.000000
0.250000 0.531250 0.000000
0.250000 0.562500 0.000000
0.250000 0.593750 0.000000
0.250000 0.625000 0.000000
0.250000 0.656250 0.000000
0.250000 0.687500 0.000000
0.250000 0.718750 0.000000
0.250000 0.750000 0.000000
0.250000 0.781250 0.000000
0.250000 0.812500 0.000000
0.250000 0.843750 0.000000
0.250000 0.875000 0.000000
0.250000 0.906250 0.000000
0.250000 0.937500 0.000000
0.250000 0.968750 0.000000
0.250000 1.000000 0.000000
0.281250 0.000000 0.000000
0.281250 0.031250 0.000000
0.281250 0.062500 0.000000
0.281250 0.093750 0.000000
0.281250 0.125000 0.000000
0.281250 0.156250 0.000000
0.281250 0.187500 0.000000
0.281250 0.218750 0.000000
0.281250 0.250000 0.000000
0.281250 0.281250 0.000000
0.281250 0.312500 0.000000
0.281250 0.343750 0.000000
0.281250 0.375000 0.000000
0.281250 0.406250 0.000000
0.281250 0.437500 0.000000
0.281250 0.468750 0.000000
0.281250 0.500000 0.000000
0.281250 0.531250 0.000000
0.281250 0.562500 0.000000
0.281250 0.593750 0.000000
0.281250 0.625000 0.000000
0.281250 0.656250 0.000000
0.281250 0.687500 0.000000
0.281250 0.718750 0.000000
0.281250 0.750000 0.000000
0.281250 0.781250 0.000000
0.281250 0.812500 0.000000
0.281250 0.843750 0.000000
0.281250 0.875000 0.000000
0.281250 0.906250 0.000000
0.281250 0.937500 0.000000
0.281250 0.968750 0.000000
0.281250 1.000000 0.000000
0.312500 0.000000 0.000000
0.312500 0.031250 0.000000
0.312500 0.062500 0.000000
0.312500 0.093750 0.000000
0.312500 0.125000 0.000000
0.312500 0.156250 0.000000
0.312500 0.187500 0.000000
0.312500 0.218750 0.000000
0.312500 0.250000 0.000000
0.312500 0.281250 0.000000
0.312500 0.312500 0.000000
0.312500 0.343750 0.000000
0.312500 0.375000 0.000000
0.312500 0.406250 0.000000
0.312500 0.437500 0.000000
0.312500 0.468750 0.000000
0.312500 0.500000 0.000000
0.312500 0.531250 0.000000
0.312500 0.562500 0.000000
0.312500 0.593750 0.000000
0.312500 0.625000 0.000000
0.312500 0.656250 0.000000
0.312500 0.687500 0.000000
0.312500 0.718750 0.000000
0.312500 0.750000 0.000000
0.312500 0.781250 0.000000
0.312500 0.812500 0.000000
0.312500 0.843750 0.000000
0.312500 0.875000 0.000000
0.312500 0.906250 0.000000
0.312500 0.937500 0.000000
0.312500 0.968750 0.000000
0.312500 1.000000 0.000000
0.343750 0.000000 0.000000
0.343750 0.031250 0.000000
0.343750 0.062500 0.000000
[...]
POINT_DATA 1089
SCALARS phi FLOAT 1
LOOKUP_TABLE default
0.000000000000
0.000000953674
0.000015258789
0.000077247620
0.000244140625
0.000596046448
0.001235961914
0.002289772034
0.003906250000
0.006257057190
0.009536743164
0.013962745667
0.019775390625
0.027237892151
0.036636352539
0.048279762268
0.062500000000
0.079651832581
0.100112915039
0.124283790588
0.152587890625
0.185471534729
0.223403930664
0.266877174377
0.316406250000
0.372529029846
0.435806274414
0.506821632385
0.586181640625
0.674515724182
0.772476196289
0.880738258362
1.000000000000
0.000000953674
0.000088128921
0.000174509749
0.000294394947
0.000504585949
0.000884632573
0.001536925680
0.002586738971
0.004182251660
0.006494562898
0.009717702275
0.014068637878
0.019787283136
0.027136502231
0.036402114938
0.047892900275
0.061940599609
0.078899918723
0.099148529160
0.123087068616
0.151139140444
0.183751312188
0.221393113099
0.264557030571
0.313758505360
0.369535925391
0.432450617759
0.503086838127
0.582051755764
0.669975430077
0.767510767724
0.875333428617
0.994141578674
0.000015258789
0.000174509749
0.000297093173
0.000416527868
0.000588964694
0.000893315824
0.001431337765
0.002327683129
0.003729934874
0.005808630983
0.008757283398
0.012792393562
0.018153465215
0.025103015401
0.033926583554
0.044932739042
0.058453087063
0.074842272884
0.094477984444
0.117760953164
0.145114952972
0.176986797433
0.213846334870
0.256186441393
0.304523011600
0.359394946666
0.421364139234
0.491015454072
0.568956702451
0.655818606256
0.752254744064
0.858941465466
0.976577758789
0.000077247620
0.000294394947
0.000416527868
0.000476284441
0.000529063919
0.000653085365
0.000949445900
0.001542168350
0.002578239156
0.004227638813
0.006683367353
0.010161465615
0.014901033847
0.021164247305
0.029236369746
0.039425764367
0.052063902545
0.067505370098
0.086127871119
0.108332229224
0.134542386135
0.165205397491
0.200791425757
0.241793730100
0.288728653010
0.342135603384
0.402577035559
0.470638423487
0.546928228709
0.632077860108
0.726741622992
0.831596656927
0.947342872620
0.000244140625
0.000504585949
0.000588964694
0.000529063919
0.000379514658
0.000217825695
0.000144426790
0.000282711333
0.000779074771
0.001802948857
0.003546831396
0.006226312838
0.010080099268
0.015370032636
0.022381107964
0.031421487630
0.042822512706
0.056938711158
0.074147802875
0.094850701338
0.119471511824
0.148457526026
0.182279212939
0.221430205908
0.266427285640
0.317810359009
0.376142433335
0.442009585756
0.516020927217
0.598808560744
0.691027534607
0.793355793851
0.906494140625
0.000596046448
0.000884632573
0.000893315824
0.000653085365
0.000217825695
-0.000335653852
-0.000907580952
-0.001375180041
-0.001592632817
-0.001391041727
-0.000578396020
0.001060458550
0.003763847155
0.007793289876
0.013433522468
0.020992513668
0.030801478958
0.043214890594
0.058610483756
0.077389258642
0.099975478354
0.126816662450
0.158383576022
0.195170214214
0.237693782071
0.286494669653
0.342136422334
0.405205706302
0.476312269392
0.556088897881
0.645191370862
0.744298415749
0.854111671448
0.001235961914
0.001536925680
0.001431337765
0.000949445900
0.000144426790
-0.000907580952
-0.002107438319
-0.003332964684
-0.004438897055
-0.005256850380
-0.005595280724
-0.005239450981
-0.003951399944
-0.001469914755
0.002489493052
0.008234607602
0.016096524712
0.026429663591
0.039611774059
0.056043939052
0.076150572248
0.100379410665
0.129201502134
0.163111187562
0.202626077975
0.248287026376
0.300658094549
0.360326515060
0.427902648988
0.504019940330
0.589334868774
0.684526903542
0.790298461914
0.002289772034
0.002586738971
0.002327683129
0.001542168350
0.000282711333
-0.001375180041
-0.003332964684
-0.005469025012
-0.007638623125
-0.009673858670
-0.011383628459
-0.012553589007
-0.012946122217
-0.012300304633
-0.010331880624
-0.006733239789
-0.001173398883
0.006702011443
0.017270754845
0.030933992188
0.048116278953
0.069265557004
0.094853140620
0.125373696743
0.161345219508
0.203308999159
0.251829585635
0.307494747229
0.370915424995
0.442725683925
0.523582662346
0.614166521453
0.715180397034
0.003906250000
0.004182251660
0.003729934874
0.002578239156
0.000779074771
-0.001592632817
-0.004438897055
-0.007638623125
-0.011047561459
-0.014498262159
-0.017800031652
-0.020738892049
-0.023077543745
-0.024555331813
-0.024888216557
-0.023768748645
-0.020866049160
-0.015825794930
-0.008270209422
0.002201940535
0.016015341979
0.033618126845
0.055481856710
0.082101501241
0.113995410443
0.151705280896
0.195796116314
0.246856182944
0.305496960504
0.372353089623
0.448082317012
0.533365439748
0.628906250000
0.006257057190
0.006494562898
0.005808630983
0.004227638813
0.001802948857
-0.001391041727
-0.005256850380
-0.009673858670
-0.014498262159
-0.019563021859
-0.024677817824
-0.029629005550
-0.034179575796
-0.038069118374
-0.041013790337
-0.042706289065
-0.042815830648
-0.040988133942
-0.036845410642
-0.029986361668
-0.019986180080
-0.006396560696
0.011254283506
0.033461598231
0.060744058047
0.093643730169
0.132726032199
0.178579684382
0.231816657066
0.293072114276
0.363004354424
0.442294749276
0.531647682190
0.009536743164
0.009717702275
0.008757283398
0.006683367353
0.003546831396
-0.000578396020
-0.005595280724
-0.011383628459
-0.017800031652
-0.024677817824
-0.031827000326
-0.039034232062
-0.046062762804
-0.052652400627
-0.058519478019
-0.063356823163
-0.066833736830
-0.068595975319
-0.068265739804
-0.065441672409
-0.059698859249
-0.050588840618
-0.037639628389
-0.020355730605
0.001781816866
0.029315411887
0.062810841212
0.102857229796
0.150066984956
0.205075736189
0.268542271617
0.341148471988
0.423599243164
0.013962745667
0.014068637878
0.012792393562
0.010161465615
0.006226312838
0.001060458550
-0.005239450981
-0.012553589007
-0.020738892049
-0.029629005550
-0.039034232062
-0.048741482590
-0.058514231663
-0.068092476749
-0.077192702556
-0.085507850742
-0.092707295534
-0.098436825699
-0.102318633265
-0.103951309326
-0.102909847190
-0.098745653049
-0.090986564247
-0.079136875115
-0.062677370231
-0.041065364823
-0.013734751915
0.019903944342
0.060463509810
0.108579976793
0.164912556600
0.230143569177
0.304978370667
0.019775390625
0.019787283136
0.018153465215
0.014901033847
0.010080099268
0.003763847155
-0.003951399944
-0.012946122217
-0.023077543745
-0.034179575796
-0.046062762804
-0.058514231663
-0.071297644919
-0.084153158474
-0.096797384368
-0.108923359174
-0.120200518558
-0.130274678439
-0.138768023187
-0.145279101202
-0.149382828149
-0.150630498032
-0.148549802188
-0.142644856163
-0.132396234330
-0.117261011959
-0.096672814328
-0.070041872339
-0.036755083963
0.003823919242
0.052354701397
0.109519948240
0.176025390625
0.027237892151
0.027136502231
0.025103015401
0.021164247305
0.015370032636
0.007793289876
-0.001469914755
-0.012300304633
-0.024555331813
-0.038069118374
-0.052652400627
-0.068092476749
-0.084153158474
-0.100574727423
-0.117073896669
-0.133343778105
-0.149053856148
-0.163849968263
-0.177354292743
-0.189165344113
-0.198857976428
-0.205983394672
-0.210069174325
-0.210619289075
-0.207114146521
-0.199010631583
-0.185742157202
-0.166718721796
-0.141326972816
-0.108930275633
-0.068868786924
-0.020459531672
0.037003517151
0.036636352539
0.036402114938
0.033926583554
0.029236369746
0.022381107964
0.013433522468
0.002489493052
-0.010331880624
-0.024888216557
-0.041013790337
-0.058519478019
-0.077192702556
-0.096797384368
-0.117073896669
-0.137739026150
-0.158485939588
-0.178984156926
-0.198879531333
-0.217794236686
-0.235326762835
-0.251051918958
-0.264520845189
-0.275261032608
-0.282776351564
-0.286547088176
-0.286029988727
-0.280658311538
-0.269841885790
-0.252967176627
-0.229397355796
-0.198472376982
-0.159509054935
-0.111801147461
0.048279762268
0.047892900275
0.044932739042
0.039425764367
0.031421487630
0.020992513668
0.008234607602
-0.006733239789
-0.023768748645
-0.042706289065
-0.063356823163
-0.085507850742
-0.108923359174
-0.133343778105
-0.158485939588
-0.184043044223
-0.209684633853
-0.235056571342
-0.259781027860
-0.283456478074
-0.305657703531
-0.325935804431
-0.343818219874
-0.358808756569
-0.370387625821
-0.378011488543
-0.381113507859
-0.379103408770
-0.371367544226
-0.357268966852
-0.336147505478
-0.307319845592
-0.270079612732
0.062500000000
0.061940599609
0.058453087063
0.052063902545
0.042822512706
0.030801478958
0.016096524712
-0.001173398883
-0.020866049160
-0.042815830648
-0.066833736830
-0.092707295534
-0.120200518558
-0.149053856148
-0.178984156926
-0.209684633853
-0.240824836793
-0.272050632174
-0.302984190208
-0.333223980053
-0.362344773203
-0.389897655314
-0.415410046551
-0.438385730430
-0.458304890992
-0.474624158040
-0.486776660009
-0.494172083947
-0.496196741940
-0.492213643236
-0.481562571221
-0.463560164338
-0.437500000000
0.079651832581
0.078899918723
0.074842272884
0.067505370098
0.056938711158
0.043214890594
0.026429663591
0.006702011443
-0.015825794930
-0.040988133942
-0.068595975319
-0.098436825699
-0.130274678439
-0.163849968263
-0.198879531333
-0.235056571342
-0.272050632174
-0.309507577645
-0.347049578772
-0.384275108953
-0.420758947348
-0.456052190669
-0.489682273452
-0.521152996796
-0.549944565405
-0.575513632661
-0.597293353292
-0.614693443126
-0.627100245251
-0.633876801842
-0.634362930804
-0.627875306330
-0.613707542419
0.100112915039
0.099148529160
0.094477984444
0.086127871119
0.074147802875
0.058610483756
0.039611774059
0.017270754845
-0.008270209422
-0.036845410642
-0.068265739804
-0.102318633265
-0.138768023187
-0.177354292743
-0.217794236686
-0.259781027860
-0.302984190208
-0.347049578772
-0.391599367126
-0.436232042629
-0.480522409780
-0.524021601871
-0.566257101025
-0.606732766591
-0.644928871740
-0.680302147978
-0.712285837162
-0.740289750474
-0.763700333717
-0.781880738141
-0.794170895995
-0.799887599877
-0.798324584961
0.124283790588
0.123087068616
0.117760953164
0.108332229224
0.094850701338
0.077389258642
0.056043939052
0.030933992188
0.002201940535
-0.029986361668
-0.065441672409
-0.103951309326
-0.145279101202
-0.189165344113
-0.235326762835
-0.283456478074
-0.333223980053
-0.384275108953
-0.436232042629
-0.488693291988
-0.541233704296
-0.593404474600
-0.644733165379
-0.694723734350
-0.742856570316
-0.788588536743
-0.831353022668
-0.870560000383
-0.905596089255
-0.935824624902
-0.960585732880
-0.979196406013
-0.990950584412
0.152587890625
0.151139140444
0.145114952972
0.134542386135
0.119471511824
0.099975478354
0.076150572248
0.048116278953
0.016015341979
-0.019986180080
-0.059698859249
-0.102909847190
-0.149382828149
-0.198857976428
-0.251051918958
-0.305657703531
-0.362344773203
-0.420758947348
-0.480522409780
-0.541233704296
-0.602467737915
-0.663775791999
-0.724685541334
-0.784701081140
-0.843302961868
-0.899948231483
-0.954070484837
-1.005079919580
-1.052363397942
-1.095284513608
-1.133183662849
-1.165378118997
-1.191162109375
0.185471534729
0.183751312188
0.176986797433
0.165205397491
0.148457526026
0.126816662450
0.100379410665
0.069265557004
0.033618126845
-0.006396560696
-0.050588840618
-0.098745653049
-0.150630498032
-0.205983394672
-0.264520845189
-0.325935804431
-0.389897655314
-0.456052190669
-0.524021601871
-0.593404474600
-0.663775791999
-0.734686945393
-0.805665752665
-0.876216484246
-0.945819896582
-1.013933272795
-1.079990470131
-1.143401973644
-1.203554955441
-1.259813338688
-1.311517865499
-1.357986167801
-1.398512840271
0.223403930664
0.221393113099
0.213846334870
0.200791425757
0.182279212939
0.158383576022
0.129201502134
0.094853140620
0.055481856710
0.011254283506
-0.037639628389
-0.090986564247
-0.148549802188
-0.210069174325
-0.275261032608
-0.343818219874
-0.415410046551
-0.489682273452
-0.566257101025
-0.644733165379
-0.724685541334
-0.805665752665
-0.887201789620
-0.968798133686
-1.049935789475
-1.130072323447
-1.208641909096
-1.285055378021
-1.358700276206
-1.428940924671
-1.495118483547
-1.556551018604
-1.612533569336
0.266877174377
0.264557030571
0.256186441393
0.241793730100
0.221430205908
0.195170214214
0.163111187562
0.125373696743
0.082101501241
0.033461598231
-0.020355730605
-0.079136875115
-0.142644856163
-0.210619289075
-0.282776351564
-0.358808756569
-0.438385730430
-0.521152996796
-0.606732766591
-0.694723734350
-0.784701081140
-0.876216484246
-0.968798133686
-1.061950755567
-1.155155642135
-1.247870688304
-1.339530434269
-1.429546113666
-1.517305706569
-1.602173996425
-1.683492629884
-1.760580178406
-1.832732200623
0.316406250000
0.313758505360
0.304523011600
0.288728653010
0.266427285640
0.237693782071
0.202626077975
0.161345219508
0.113995410443
0.060744058047
0.001781816866
-0.062677370231
-0.132396234330
-0.207114146521
-0.286547088176
-0.370387625821
-0.458304890992
-0.549944565405
-0.644928871740
-0.742856570316
-0.843302961868
-0.945819896582
-1.049935789475
-1.155155642135
-1.260961070724
-1.366810340049
-1.472138403366
-1.576356947404
-1.678854441898
-1.778996192659
-1.876124396964
-1.969558199850
-2.058593750000
0.372529029846
0.369535925391
0.359394946666
0.342135603384
0.317810359009
0.286494669653
0.248287026376
0.203308999159
0.151705280896
0.093643730169
0.029315411887
-0.041065364823
-0.117261011959
-0.199010631583
-0.286029988727
-0.378011488543
-0.474624158040
-0.575513632661
-0.680302147978
-0.788588536743
-0.899948231483
-1.013933272795
-1.130072323447
-1.247870688304
-1.366810340049
-1.486349950564
-1.605924927708
-1.724947457069
-1.842806548015
-1.958868083026
-2.072474868836
-2.182946687478
-2.289580345154
0.435806274414
0.432450617759
0.421364139234
0.402577035559
0.376142433335
0.342136422334
0.300658094549
0.251829585635
0.195796116314
0.132726032199
0.062810841212
-0.013734751915
-0.096672814328
-0.185742157202
-0.280658311538
-0.381113507859
-0.486776660009
-0.597293353292
-0.712285837162
-0.831353022668
-0.954070484837
-1.079990470131
-1.208641909096
-1.339530434269
-1.472138403366
-1.605924927708
-1.740325905759
-1.874754061507
-2.008598987174
-2.141227189281
-2.271982136390
-2.400184305799
-2.525131225586
0.506821632385
0.503086838127
0.491015454072
0.470638423487
0.442009585756
0.405205706302
0.360326515060
0.307494747229
0.246856182944
0.178579684382
0.102857229796
0.019903944342
-0.070041872339
-0.166718721796
-0.269841885790
-0.379103408770
-0.494172083947
-0.614693443126
-0.740289750474
-0.870560000383
-1.005079919580
-1.143401973644
-1.285055378021
-1.429546113666
-1.576356947404
-1.724947457069
-1.874754061507
-2.025190055434
-2.175645648985
-2.325488011349
-2.474061316863
-2.620686789979
-2.764662742615
0.586181640625
0.582051755764
0.568956702451
0.546928228709
0.516020927217
0.476312269392
0.427902648988
0.370915424995
0.305496960504
0.231816657066
0.150066984956
0.060463509810
-0.036755083963
-0.141326972816
-0.252967176627
-0.371367544226
-0.496196741940
-0.627100245251
-0.763700333717
-0.905596089255
-1.052363397942
-1.203554955441
-1.358700276206
-1.517305706569
-1.678854441898
-1.842806548015
-2.008598987174
-2.175645648985
-2.343337386761
-2.511042059605
-2.678104579639
-2.843846960886
-3.007568359375
0.674515724182
0.669975430077
0.655818606256
0.632077860108
0.598808560744
0.556088897881
0.504019940330
0.442725683925
0.372353089623
0.293072114276
0.205075736189
0.108579976793
0.003823919242
-0.108930275633
-0.229397355796
-0.357268966852
-0.492213643236
-0.633876801842
-0.781880738141
-0.935824624902
-1.095284513608
-1.259813338688
-1.428940924671
-1.602173996425
-1.778996192659
-1.958868083026
-2.141227189281
-2.325488011349
-2.511042059605
-2.697257895411
-2.883481182339
-3.069034748664
-3.253218650818
0.772476196289
0.767510767724
0.752254744064
0.726741622992
0.691027534607
0.645191370862
0.589334868774
0.523582662346
0.448082317012
0.363004354424
0.268542271617
0.164912556600
0.052354701397
-0.068868786924
-0.198472376982
-0.336147505478
-0.481562571221
-0.634362930804
-0.794170895995
-0.960585732880
-1.133183662849
-1.311517865499
-1.495118483547
-1.683492629884
-1.876124396964
-2.072474868836
-2.271982136390
-2.474061316863
-2.678104579639
-2.883481182339
-3.089537524949
-3.295597235727
-3.500961303711
0.880738258362
0.875333428617
0.858941465466
0.831596656927
0.793355793851
0.744298415749
0.684526903542
0.614166521453
0.533365439748
0.442294749276
0.341148471988
0.230143569177
0.109519948240
-0.020459531672
-0.159509054935
-0.307319845592
-0.463560164338
-0.627875306330
-0.799887599877
-0.979196406013
-1.165378118997
-1.357986167801
-1.556551018604
-1.760580178406
-1.969558199850
-2.182946687478
-2.400184305799
-2.620686789979
-2.843846960886
-3.069034748664
-3.295597235727
-3.522858750871
-3.750121116638
1.000000000000
0.994141578674
0.976577758789
0.947342872620
0.906494140625
0.854111671448
0.790298461914
0.715180397034
0.628906250000
0.531647682190
0.423599243164
0.304978370667
0.176025390625
0.037003517151
-0.111801147461
-0.270079612732
-0.437500000000
-0.613707542419
-0.798324584961
-0.990950584412
-1.191162109375
-1.398512840271
-1.612533569336
-1.832732200623
-2.058593750000
-2.289580345154
-2.525131225586
-2.764662742615
-3.007568359375
-3.253218650818
-3.500961303711
-3.750121116638
-4.000000000000
