# vtk DataFile Version 2.0
TITLE = "Quad data"
ASCII
DATASET STRUCTURED_GRID
DIMENSIONS 101 101 1
POINTS 10201 FLOAT
0.000000 0.000000 0.000000
0.000000 0.010000 0.000000
0.000000 0.020000 0.000000
0.000000 0.030000 0.000000
0.000000 0.040000 0.000000
0.000000 0.050000 0.000000
0.000000 0.060000 0.000000
0.000000 0.070000 0.000000
0.000000 0.080000 0.000000
0.000000 0.090000 0.000000
0.000000 0.100000 0.000000
0.000000 0.110000 0.000000
0.000000 0.120000 0.000000
0.000000 0.130000 0.000000
0.000000 0.140000 0.000000
0.000000 0.150000 0.000000
0.000000 0.160000 0.000000
0.000000 0.170000 0.000000
0.000000 0.180000 0.000000
0.000000 0.190000 0.000000
0.000000 0.200000 0.000000
0.000000 0.210000 0.000000
0.000000 0.220000 0.000000
0.000000 0.230000 0.000000
0.000000 0.240000 0.000000
0.000000 0.250000 0.000000
0.000000 0.260000 0.000000
0.000000 0.270000 0.000000
0.000000 0.280000 0.000000
0.000000 0.290000 0.000000
0.000000 0.300000 0.000000
0.000000 0.310000 0.000000
0.000000 0.320000 0.000000
0.000000 0.330000 0.000000
0.000000 0.340000 0.000000
0.000000 0.350000 0.000000
0.000000 0.360000 0.000000
0.000000 0.370000 0.000000
0.000000 0.380000 0.000000
0.000000 0.390000 0.000000
0.000000 0.400000 0.000000
0.000000 0.410000 0.000000
0.000000 0.420000 0.000000
0.000000 0.430000 0.000000
0.000000 0.440000 0.000000
0.000000 0.450000 0.000000
0.000000 0.460000 0.000000
0.000000 0.470000 0.000000
0.000000 0.480000 0.000000
0.000000 0.490000 0.000000
0.000000 0.500000 0.000000
0.000000 0.510000 0.000000
0.000000 0.520000 0.000000
0.000000 0.530000 0.000000
0.000000 0.540000 0.000000
0.000000 0.550000 0.000000
0.000000 0.560000 0.000000
0.000000 0.570000 0.000000
0.000000 0.580000 0.000000
0.000000 0.590000 0.000000
0.000000 0.600000 0.000000
0.000000 0.610000 0.000000
0.000000 0.620000 0.000000
0.000000 0.630000 0.000000
0.000000 0.640000 0.000000
0.000000 0.650000 0.000000
0.000000 0.660000 0.000000
0.000000 0.670000 0.000000
0.000000 0.680000 0.000000
0.000000 0.690000 0.000000
0.000000 0.700000 0.000000
0.000000 0.710000 0.000000
0.000000 0.720000 0.000000
0.000000 0.730000 0.000000
0.000000 0.740000 0.000000
0.000000 0.750000 0.000000
0.000000 0.760000 0.000000
0.000000 0.770000 0.000000
0.000000 0.780000 0.000000
0.000000 0.790000 0.000000
0.000000 0.800000 0.000000
0.000000 0.810000 0.000000
0.000000 0.820000 0.000000
0.000000 0.830000 0.000000
0.000000 0.840000 0.000000
0.000000 0.850000 0.000000
0.000000 0.860000 0.000000
0.000000 0.870000 0.000000
0.000000 0.880000 0.000000
0.000000 0.890000 0.000000
0.000000 0.900000 0.000000
0.000000 0.910000 0.000000
0.000000 0.920000 0.000000
0.000000 0.930000 0.000000
0.000000 0.940000 0.000000
0.000000 0.950000 0.000000
0.000000 0.960000 0.000000
0.000000 0.970000 0.000000
0.000000 0.980000 0.000000
0.000000 0.990000 0.000000
0.000000 1.000000 0.000000
0.010000 0.000000 0.000000
0.010000 0.010000 0.000000
0.010000 0.020000 0.000000
0.010000 0.030000 0.000000
0.010000 0.040000 0.000000
0.010000 0.050000 0.000000
0.010000 0.060000 0.000000
0.010000 0.070000 0.000000
0.010000 0.080000 0.000000
0.010000 0.090000 0.000000
0.010000 0.100000 0.000000
0.010000 0.110000 0.000000
0.010000 0.120000 0.000000
0.010000 0.130000 0.000000
0.010000 0.140000 0.000000
0.010000 0.150000 0.000000
0.010000 0.160000 0.000000
0.010000 0.170000 0.000000
0.010000 0.180000 0.000000
0.010000 0.190000 0.000000
0.010000 0.200000 0.000000
0.010000 0.210000 0.000000
0.010000 0.220000 0.000000
0.010000 0.230000 0.000000
0.010000 0.240000 0.000000
0.010000 0.250000 0.000000
0.010000 0.260000 0.000000
0.010000 0.270000 0.000000
0.010000 0.280000 0.000000
0.010000 0.290000 0.000000
0.010000 0.300000 0.000000
0.010000 0.310000 0.000000
0.010000 0.320000 0.000000
0.010000 0.330000 0.000000
0.010000 0.340000 0.000000
0.010000 0.350000 0.000000
0.010000 0.360000 0.000000
0.010000 0.370000 0.000000
0.010000 0.380000 0.000000
0.010000 0.390000 0.000000
0.010000 0.400000 0.000000
0.010000 0.410000 0.000000
0.010000 0.420000 0.000000
0.010000 0.430000 0.000000
0.010000 0.440000 0.000000
0.010000 0.450000 0.000000
0.010000 0.460000 0.000000
0.010000 0.470000 0.000000
0.010000 0.480000 0.000000
0.010000 0.490000 0.000000
0.010000 0.500000 0.000000
0.010000 0.510000 0.000000
0.010000 0.520000 0.000000
0.010000 0.530000 0.000000
0.010000 0.540000 0.000000
0.010000 0.550000 0.000000
0.010000 0.560000 0.000000
0.010000 0.570000 0.000000
0.010000 0.580000 0.000000
0.010000 0.590000 0.000000
0.010000 0.600000 0.000000
0.010000 0.610000 0.000000
0.010000 0.620000 0.000000
0.010000 0.630000 0.000000
0.010000 0.640000 0.000000
0.010000 0.650000 0.000000
0.010000 0.660000 0.000000
0.010000 0.670000 0.000000
0.010000 0.680000 0.000000
0.010000 0.690000 0.000000
0.010000 0.700000 0.000000
0.010000 0.710000 0.000000
0.010000 0.720000 0.000000
0.010000 0.730000 0.000000
0.010000 0.740000 0.000000
0.010000 0.750000 0.000000
0.010000 0.760000 0.000000
0.010000 0.770000 0.000000
0.010000 0.780000 0.000000
0.010000 0.790000 0.000000
0.010000 0.800000 0.000000
0.010000 0.810000 0.000000
0.010000 0.820000 0.000000
0.010000 0.830000 0.000000
0.010000 0.840000 0.000000
0.010000 0.850000 0.000000
0.010000 0.860000 0.000000
0.010000 0.870000 0.000000
0.010000 0.880000 0.000000
0.010000 0.890000 0.000000
0.010000 0.900000 0.000000
0.010000 0.910000 0.000000
0.010000 0.920000 0.000000
0.010000 0.930000 0.000000
0.010000 0.940000 0.000000
0.010000 0.950000 0.000000
0.010000 0.960000 0.000000
0.010000 0.970000 0.000000
0.010000 0.980000 0.000000
0.010000 0.990000 0.000000
0.010000 1.000000 0.000000
0.020000 0.000000 0.000000
0.020000 0.010000 0.000000
0.020000 0.020000 0.000000
0.020000 0.030000 0.000000
0.020000 0.040000 0.000000
0.020000 0.050000 0.000000
0.020000 0.060000 0.000000
0.020000 0.070000 0.000000
0.020000 0.080000 0.000000
0.020000 0.090000 0.000000
0.020000 0.100000 0.000000
0.020000 0.110000 0.000000
0.020000 0.120000 0.000000
0.020000 0.130000 0.000000
0.020000 0.140000 0.000000
0.020000 0.150000 0.000000
0.020000 0.160000 0.000000
0.020000 0.170000 0.000000
0.020000 0.180000 0.000000
0.020000 0.190000 0.000000
0.020000 0.200000 0.000000
0.020000 0.210000 0.000000
0.020000 0.220000 0.000000
0.020000 0.230000 0.000000
0.020000 0.240000 0.000000
0.020000 0.250000 0.000000
0.020000 0.260000 0.000000
0.020000 0.270000 0.000000
0.020000 0.280000 0.000000
0.020000 0.290000 0.000000
0.020000 0.300000 0.000000
0.020000 0.310000 0.000000
0.020000 0.320000 0.000000
0.020000 0.330000 0.000000
0.020000 0.340000 0.000000
0.020000 0.350000 0.000000
0.020000 0.360000 0.000000
0.020000 0.370000 0.000000
0.020000 0.380000 0.000000
0.020000 0.390000 0.000000
0.020000 0.400000 0.000000
0.020000 0.410000 0.000000
0.020000 0.420000 0.000000
0.020000 0.430000 0.000000
0.020000 0.440000 0.000000
0.020000 0.450000 0.000000
0.020000 0.460000 0.000000
0.020000 0.470000 0.000000
0.020000 0.480000 0.000000
0.020000 0.490000 0.000000
0.020000 0.500000 0.000000
0.020000 0.510000 0.000000
0.020000 0.520000 0.000000
0.020000 0.530000 0.000000
0.020000 0.540000 0.000000
0.020000 0.550000 0.000000
0.020000 0.560000 0.000000
0.020000 0.570000 0.000000
0.020000 0.580000 0.000000
0.020000 0.590000 0.000000
0.020000 0.600000 0.000000
0.020000 0.610000 0.000000
0.020000 0.620000 0.000000
0.020000 0.630000 0.000000
0.020000 0.640000 0.000000
0.020000 0.650000 0.000000
0.020000 0.660000 0.000000
0.020000 0.670000 0.000000
0.020000 0.680000 0.000000
0.020000 0.690000 0.000000
0.020000 0.700000 0.000000
0.020000 0.710000 0.000000
0.020000 0.720000 0.000000
0.020000 0.730000 0.000000
0.020000 0.740000 0.000000
0.020000 0.750000 0.000000
0.020000 0.760000 0.000000
0.020000 0.770000 0.000000
0.020000 0.780000 0.000000
0.020000 0.790000 0.000000
0.020000 0.800000 0.000000
0.020000 0.810000 0.000000
0.020000 0.820000 0.000000
0.020000 0.830000 0.000000
0.020000 0.840000 0.000000
0.020000 0.850000 0.000000
0.020000 0.860000 0.000000
0.020000 0.870000 0.000000
0.020000 0.880000 0.000000
0.020000 0.890000 0.000000
0.020000 0.900000 0.000000
0.020000 0.910000 0.000000
0.020000 0.920000 0.000000
0.020000 0.930000 0.000000
0.020000 0.940000 0.000000
0.020000 0.950000 0.000000
0.020000 0.960000 0.000000
0.020000 0.970000 0.000000
0.020000 0.980000 0.000000
0.020000 0.990000 0.000000
0.020000 1.000000 0.000000
0.030000 0.000000 0.000000
0.030000 0.010000 0.000000
0.030000 0.020000 0.000000
0.030000 0.030000 0.000000
0.030000 0.040000 0.000000
0.030000 0.050000 0.000000
0.030000 0.060000 0.000000
0.030000 0.070000 0.000000
0.030000 0.080000 0.000000
0.030000 0.090000 0.000000
0.030000 0.100000 0.000000
0.030000 0.110000 0.000000
0.030000 0.120000 0.000000
0.030000 0.130000 0.000000
0.030000 0.140000 0.000000
0.030000 0.150000 0.000000
0.030000 0.160000 0.000000
0.030000 0.170000 0.000000
0.030000 0.180000 0.000000
0.030000 0.190000 0.000000
0.030000 0.200000 0.000000
0.030000 0.210000 0.000000
0.030000 0.220000 0.000000
0.030000 0.230000 0.000000
0.030000 0.240000 0.000000
0.030000 0.250000 0.000000
0.030000 0.260000 0.000000
0.030000 0.270000 0.000000
0.030000 0.280000 0.000000
0.030000 0.290000 0.000000
0.030000 0.300000 0.000000
0.030000 0.310000 0.000000
0.030000 0.320000 0.000000
0.030000 0.330000 0.000000
0.030000 0.340000 0.000000
0.030000 0.350000 0.000000
0.030000 0.360000 0.000000
0.030000 0.370000 0.000000
0.030000 0.380000 0.000000
0.030000 0.390000 0.000000
0.030000 0.400000 0.000000
0.030000 0.410000 0.000000
0.030000 0.420000 0.000000
0.030000 0.430000 0.000000
0.030000 0.440000 0.000000
0.030000 0.450000 0.000000
0.030000 0.460000 0.000000
0.030000 0.470000 0.000000
0.030000 0.480000 0.000000
0.030000 0.490000 0.000000
0.030000 0.500000 0.000000
0.030000 0.510000 0.000000
0.030000 0.520000 0.000000
0.030000 0.530000 0.000000
0.030000 0.540000 0.000000
0.030000 0.550000 0.000000
0.030000 0.560000 0.000000
0.030000 0.570000 0.000000
0.030000 0.580000 0.000000
0.030000 0.590000 0.000000
0.030000 0.600000 0.000000
0.030000 0.610000 0.000000
0.030000 0.620000 0.000000
[...]
POINT_DATA 10201
SCALARS phi FLOAT 1
LOOKUP_TABLE default
0.000000000000
-0.000000000000
-0.000000000000
-0.000000000000
-0.000000000000
-0.000000000000
-0.000000000000
-0.000000000000
-0.000000000000
-0.000000000000
-0.000000000000
-0.000000000000
-0.000000000000
-0.000000000000
-0.000000000000
-0.000000000000
-0.000000000000
-0.000000000000
-0.000000000000
-0.000000000000
-0.000000000000
-0.000000000000
-0.000000000000
-0.000000000000
-0.000000000000
-0.000000000000
-0.000000000000
-0.000000000000
-0.000000000000
-0.000000000000
-0.000000000000
-0.000000000000
-0.000000000000
-0.000000000000
-0.000000000000
-0.000000000000
-0.000000000000
-0.000000000000
-0.000000000000
-0.000000000000
-0.000000000000
-0.000000000000
-0.000000000000
-0.000000000000
-0.000000000000
-0.000000000000
-0.000000000000
-0.000000000000
-0.000000000000
-0.000000000000
-0.000000000000
-0.000000000000
-0.000000000000
-0.000000000000
-0.000000000000
-0.000000000000
-0.000000000000
-0.000000000000
-0.000000000000
-0.000000000000
-0.000000000000
-0.000000000000
-0.000000000000
-0.000000000000
-0.000000000000
-0.000000000000
-0.000000000000
-0.000000000000
-0.000000000000
-0.000000000000
-0.000000000000
-0.000000000000
-0.000000000000
-0.000000000000
-0.000000000000
-0.000000000000
-0.000000000000
-0.000000000000
-0.000000000000
-0.000000000000
-0.000000000000
-0.000000000000
-0.000000000000
-0.000000000000
-0.000000000000
-0.000000000000
-0.000000000000
-0.000000000000
-0.000000000000
-0.000000000000
-0.000000000000
-0.000000000000
-0.000000000000
-0.000000000000
-0.000000000000
-0.000000000000
-0.000000000000
-0.000000000000
-0.000000000000
-0.000000000000
-0.000000000000
-0.000000000000
0.000000006266
0.000000012524
0.000000019547
0.000000027109
0.000000035957
0.000000045980
0.000000057876
0.000000071726
0.000000088168
0.000000107489
0.000000130319
0.000000157114
0.000000188559
0.000000225245
0.000000267937
0.000000317344
0.000000374298
0.000000439601
0.000000514122
0.000000598700
0.000000694194
0.000000801405
0.000000921099
0.000001053940
0.000001200496
0.000001361179
0.000001536232
0.000001725684
0.000001929330
0.000002146689
0.000002376992
0.000002619149
0.000002871744
0.000003133027
0.000003400916
0.000003673011
0.000003946622
0.000004218798
0.000004486379
0.000004746053
0.000004994415
0.000005228049
0.000005443600
0.000005637859
0.000005807840
0.000005950863
0.000006064625
0.000006147263
0.000006197405
0.000006214213
0.000006197405
0.000006147263
0.000006064625
0.000005950863
0.000005807840
0.000005637859
0.000005443600
0.000005228049
0.000004994415
0.000004746053
0.000004486379
0.000004218797
0.000003946621
0.000003673011
0.000003400916
0.000003133027
0.000002871744
0.000002619149
0.000002376992
0.000002146689
0.000001929329
0.000001725684
0.000001536231
0.000001361179
0.000001200496
0.000001053941
0.000000921098
0.000000801406
0.000000694193
0.000000598701
0.000000514119
0.000000439602
0.000000374294
0.000000317346
0.000000267930
0.000000225249
0.000000188548
0.000000157120
0.000000130306
0.000000107501
0.000000088150
0.000000071749
0.000000057842
0.000000046017
0.000000035900
0.000000027152
0.000000019464
0.000000012552
0.000000006157
-0.000000000000
-0.000000000000
0.000000012597
0.000000025847
0.000000040094
0.000000055924
0.000000073945
0.000000094808
0.000000119189
0.000000147899
0.000000181758
0.000000221742
0.000000268878
0.000000324330
0.000000389354
0.000000465324
0.000000553711
0.000000656096
0.000000774138
0.000000909570
0.000001064169
0.000001239729
0.000001438021
0.000001660752
0.000001909514
0.000002185728
0.000002490582
0.000002824964
0.000003189399
0.000003583972
0.000004008271
0.000004461319
0.000004941522
0.000005446626
0.000005973687
0.000006519058
0.000007078397
0.000007646695
0.000008218322
0.000008787109
0.000009346438
0.000009889365
0.000010408757
0.000010897445
0.000011348391
0.000011754854
0.000012110569
0.000012409904
0.000012648020
0.000012821001
0.000012925965
0.000012961151
0.000012925965
0.000012821001
0.000012648020
0.000012409904
0.000012110569
0.000011754854
0.000011348391
0.000010897445
0.000010408757
0.000009889365
0.000009346438
0.000008787109
0.000008218322
0.000007646695
0.000007078397
0.000006519058
0.000005973686
0.000005446626
0.000004941522
0.000004461319
0.000004008271
0.000003583972
0.000003189399
0.000002824964
0.000002490581
0.000002185728
0.000001909513
0.000001660751
0.000001438020
0.000001239728
0.000001064168
0.000000909568
0.000000774136
0.000000656093
0.000000553709
0.000000465321
0.000000389352
0.000000324327
0.000000268876
0.000000221736
0.000000181756
0.000000147888
0.000000119184
0.000000094789
0.000000073929
0.000000055901
0.000000040065
0.000000025829
0.000000012581
-0.000000000000
-0.000000000000
0.000000019592
0.000000040078
0.000000062230
0.000000086768
0.000000114824
0.000000147208
0.000000185187
0.000000229829
0.000000282592
0.000000344863
0.000000418363
0.000000504839
0.000000606319
0.000000724919
0.000000862993
0.000001022996
0.000001207570
0.000001419430
0.000001661395
0.000001936292
0.000002246933
0.000002596020
0.000002986088
0.000003419395
0.000003897846
0.000004422870
0.000004995326
0.000005615385
0.000006282432
0.000006994959
0.000007750488
0.000008545493
0.000009375358
0.000010234351
0.000011115638
0.000012011323
0.000012912526
0.000013809504
0.000014691799
0.000015548431
0.000016368114
0.000017139499
0.000017851437
0.000018493253
0.000019055013
0.000019527792
0.000019903914
0.000020177170
0.000020342989
0.000020398576
0.000020342989
0.000020177170
0.000019903914
0.000019527792
0.000019055013
0.000018493253
0.000017851437
0.000017139499
0.000016368114
0.000015548431
0.000014691799
0.000013809503
0.000012912526
0.000012011323
0.000011115638
0.000010234351
0.000009375357
0.000008545493
0.000007750488
0.000006994959
0.000006282431
0.000005615385
0.000004995325
0.000004422870
0.000003897845
0.000003419395
0.000002986086
0.000002596020
0.000002246931
0.000001936291
0.000001661392
0.000001419429
0.000001207565
0.000001022995
0.000000862986
0.000000724918
0.000000606310
0.000000504839
0.000000418350
0.000000344863
0.000000282571
0.000000229830
0.000000185156
0.000000147208
0.000000114777
0.000000086766
0.000000062173
0.000000040074
0.000000019518
-0.000000000000
-0.000000000000
0.000000027279
0.000000055948
0.000000086820
0.000000121172
0.000000160327
0.000000205705
0.000000258820
0.000000321426
0.000000395366
0.000000482781
0.000000585961
0.000000707490
0.000000850162
0.000001017044
0.000001211429
0.000001436854
0.000001697045
0.000001995905
0.000002337437
0.000002725703
0.000003164719
0.000003658376
0.000004210314
0.000004823804
0.000005501604
0.000006245812
0.000007057710
0.000007937609
0.000008884695
0.000009896887
0.000010970710
0.000012101197
0.000013281812
0.000014504425
0.000015759315
0.000017035234
0.000018319517
0.000019598250
0.000020856487
0.000022078516
0.000023248178
0.000024349214
0.000025365643
0.000026282152
0.000027084488
0.000027759839
0.000028297186
0.000028687608
0.000028924541
0.000029003970
0.000028924541
0.000028687608
0.000028297186
0.000027759839
0.000027084488
0.000026282152
0.000025365643
0.000024349214
0.000023248178
0.000022078516
0.000020856487
0.000019598250
0.000018319517
0.000017035234
0.000015759315
0.000014504425
0.000013281812
0.000012101196
0.000010970710
0.000009896887
0.000008884695
0.000007937609
0.000007057709
0.000006245811
0.000005501603
0.000004823803
0.000004210313
0.000003658374
0.000003164718
0.000002725700
0.000002337435
0.000001995901
0.000001697042
0.000001436849
0.000001211425
0.000001017037
0.000000850156
0.000000707481
0.000000585954
0.000000482766
0.000000395357
0.000000321403
0.000000258806
0.000000205674
0.000000160299
0.000000121136
0.000000086777
0.000000055921
0.000000027234
-0.000000000000
-0.000000000000
0.000000036066
0.000000073984
0.000000114853
0.000000160336
0.000000212276
0.000000272452
0.000000343034
0.000000426214
0.000000524619
0.000000640988
0.000000778514
0.000000940589
0.000001131045
0.000001353976
0.000001613871
0.000001915487
0.000002263904
0.000002664398
0.000003122436
0.000003643536
0.000004233195
0.000004896730
0.000005639148
0.000006464951
0.000007377969
0.000008381137
0.000009476297
0.000010663974
0.000011943171
0.000013311169
0.000014763356
0.000016293080
0.000017891551
0.000019547793
0.000021248654
0.000022978881
0.000024721276
0.000026456914
0.000028165441
0.000029825444
0.000031414876
0.000032911535
0.000034293584
0.000035540088
0.000036631551
0.000037550439
0.000038281665
0.000038813013
0.000039135494
0.000039243605
0.000039135494
0.000038813013
0.000038281665
0.000037550439
0.000036631551
0.000035540088
0.000034293584
0.000032911535
0.000031414876
0.000029825444
0.000028165441
0.000026456914
0.000024721276
0.000022978881
0.000021248654
0.000019547793
0.000017891551
0.000016293080
0.000014763356
0.000013311169
0.000011943170
0.000010663973
0.000009476296
0.000008381136
0.000007377967
0.000006464950
0.000005639145
0.000004896728
0.000004233192
0.000003643533
0.000003122431
0.000002664395
0.000002263898
0.000001915484
0.000001613862
0.000001353972
0.000001131033
0.000000940584
0.000000778495
0.000000640980
0.000000524590
0.000000426202
0.000000342995
0.000000272432
0.000000212227
0.000000160311
0.000000114801
0.000000073963
0.000000036019
-0.000000000000
-0.000000000000
0.000000046231
0.000000094867
0.000000147293
0.000000205737
0.000000272483
0.000000349966
0.000000440863
0.000000548175
0.000000675177
0.000000825584
0.000001003443
0.000001213301
0.000001460096
0.000001749266
0.000002086666
0.000002478600
0.000002931736
0.000003453075
0.000004049831
0.000004729343
0.000005498909
0.000006365629
0.000007336194
0.000008416661
0.000009612204
0.000010926841
0.000012363150
0.000013921985
0.000015602190
0.000017400335
0.000019310479
0.000021323979
0.000023429344
0.000025612171
0.000027855147
0.000030138154
0.000032438459
0.000034731008
0.000036988822
0.000039183477
0.000041285682
0.000043265914
0.000045095109
0.000046745384
0.000048190758
0.000049407856
0.000050376553
0.000051080550
0.000051507850
0.000051651107
0.000051507850
0.000051080550
0.000050376553
0.000049407856
0.000048190758
0.000046745383
0.000045095109
0.000043265914
0.000041285682
0.000039183477
0.000036988822
0.000034731008
0.000032438459
0.000030138154
0.000027855147
0.000025612171
0.000023429344
0.000021323979
0.000019310479
0.000017400334
0.000015602189
0.000013921984
0.000012363149
0.000010926840
0.000009612203
0.000008416659
0.000007336192
0.000006365627
0.000005498906
0.000004729339
0.000004049827
0.000003453069
0.000002931732
0.000002478593
0.000002086659
0.000001749255
0.000001460087
0.000001213286
0.000001003432
0.000000825561
0.000000675159
0.000000548144
0.000000440837
0.000000349929
0.000000272446
0.000000205700
0.000000147247
0.000000094840
0.000000046184
-0.000000000000
-0.000000000000
0.000000058103
0.000000119283
0.000000185257
0.000000258885
0.000000343070
0.000000440883
0.000000555801
0.000000691575
0.000000852497
0.000001043223
0.000001269054
0.000001535746
0.000001849734
0.000002217980
0.000002648095
0.000003148208
0.000003726995
0.000004393533
0.000005157237
0.000006027672
0.000007014398
0.000008126726
0.000009373475
0.000010762657
0.000012301168
0.000013994418
0.000015845972
0.000017857160
0.000020026713
0.000022350405
0.000024820738
0.000027426683
0.000030153484
0.000032982565
0.000035891523
0.000038854260
0.000041841220
0.000044819776
0.000047754735
0.000050608978
0.000053344204
0.000055921769
0.000058303602
0.000060453148
0.000062336323
0.000063922444
0.000065185083
0.000066102830
0.000066659920
0.000066846700
0.000066659920
0.000066102830
0.000065185083
0.000063922444
0.000062336323
0.000060453148
0.000058303602
0.000055921769
0.000053344204
0.000050608978
0.000047754735
0.000044819775
0.000041841220
0.000038854260
0.000035891523
0.000032982564
0.000030153484
0.000027426682
0.000024820738
0.000022350404
0.000020026712
0.000017857159
0.000015845971
0.000013994417
0.000012301166
0.000010762655
0.000009373472
0.000008126724
0.000007014394
0.000006027668
0.000005157232
0.000004393529
0.000003726987
0.000003148202
0.000002648084
0.000002217972
0.000001849718
0.000001535735
0.000001269031
0.000001043209
0.000000852464
0.000000691553
0.000000555760
0.000000440852
0.000000343024
0.000000258849
0.000000185213
0.000000119256
0.000000058070
-0.000000000000
-0.000000000000
0.000000072087
0.000000148009
0.000000229950
0.000000321502
0.000000426290
0.000000548213
0.000000691603
0.000000861264
0.000001062539
0.000001301423
0.000001584544
0.000001919311
0.000002313841
0.000002777080
0.000003318702
0.000003949156
0.000004679542
0.000005521550
0.000006487289
0.000007589127
0.000008839430
0.000010250299
0.000011833221
0.000013598699
0.000015555823
0.000017711813
0.000020071536
0.000022637012
0.000025406925
0.000028376163
0.000031535394
0.000034870721
0.000038363425
0.000041989818
0.000045721241
0.000049524206
0.000053360709
0.000057188711
0.000060962799
0.000064635000
0.000068155757
0.000071475014
0.000074543411
0.000077313513
0.000079741064
0.000081786198
0.000083414561
0.000084598311
0.000085316943
0.000085557896
0.000085316943
0.000084598311
0.000083414561
0.000081786198
0.000079741064
0.000077313513
0.000074543411
0.000071475014
0.000068155757
0.000064635000
0.000060962799
0.000057188711
0.000053360708
0.000049524206
0.000045721241
0.000041989818
0.000038363425
0.000034870721
0.000031535394
0.000028376162
0.000025406924
0.000022637011
0.000020071535
0.000017711812
0.000015555821
0.000013598697
0.000011833218
0.000010250295
0.000008839426
0.000007589122
0.000006487285
0.000005521543
0.000004679536
0.000003949147
0.000003318694
0.000002777066
0.000002313830
0.000001919291
0.000001584527
0.000001301395
0.000001062514
0.000000861230
0.000000691569
0.000000548176
0.000000426249
0.000000321466
0.000000229910
0.000000147985
0.000000072056
-0.000000000000
-0.000000000000
0.000000088583
0.000000181911
0.000000282716
0.000000395481
0.000000524700
0.000000675245
0.000000852536
0.000001062560
0.000001312058
0.000001608504
0.000001960303
0.000002376726
0.000002868090
0.000003445653
0.000004121727
0.000004909546
0.000005823259
0.000006877755
0.000008088527
0.000009471406
0.000011042291
0.000012816769
0.000014809708
0.000017034758
0.000019503821
0.000022226451
0.000025209241
0.000028455177
0.000031963008
0.000035726637
0.000039734577
0.000043969482
0.000048407807
0.000053019606
0.000057768508
0.000062611890
0.000067501263
0.000072382882
0.000077198585
0.000081886846
0.000086384018
0.000090625746
0.000094548501
0.000098091184
0.000101196747
0.000103813767
0.000105897911
0.000107413235
0.000108333255
0.000108641749
0.000108333255
0.000107413235
0.000105897911
0.000103813767
0.000101196747
0.000098091184
0.000094548501
0.000090625746
0.000086384018
0.000081886846
0.000077198585
0.000072382882
0.000067501263
0.000062611890
0.000057768508
0.000053019606
0.000048407807
0.000043969482
0.000039734577
0.000035726637
0.000031963007
0.000028455175
0.000025209239
0.000022226449
0.000019503818
0.000017034756
0.000014809704
0.000012816766
0.000011042286
0.000009471402
0.000008088521
0.000006877749
0.000005823250
0.000004909538
0.000004121714
0.000003445642
0.000002868070
0.000002376711
0.000001960276
0.000001608482
0.000001312024
0.000001062531
0.000000852497
0.000000675210
0.000000524659
0.000000395444
0.000000282679
0.000000181886
0.000000088557
-0.000000000000
-0.000000000000
0.000000108054
0.000000221929
0.000000345040
0.000000482916
0.000000641113
0.000000825668
0.000001043298
0.000001301463
0.000001608528
0.000001973861
0.000002407914
0.000002922359
0.000003530076
0.000004245275
0.000005083412
0.000006061225
0.000007196577
0.000008508358
0.000010016228
0.000011740358
0.000013701038
0.000015918245
0.000018411089
0.000021197216
0.000024292105
0.000027708324
0.000031454730
0.000035535649
0.000039950050
0.000044690768
0.000049743782
0.000055087607
0.000060692834
0.000066521854
0.000072528804
0.000078659772
0.000084853269
0.000091040999
0.000097148920
0.000103098582
0.000108808723
0.000114197080
0.000119182362
0.000123686315
0.000127635820
0.000130964923
0.000133616737
0.000135545114
0.000136716046
0.000137108696
0.000136716046
0.000135545114
0.000133616736
0.000130964923
0.000127635820
0.000123686315
0.000119182362
0.000114197080
0.000108808723
0.000103098582
0.000097148920
0.000091040999
0.000084853269
0.000078659772
0.000072528804
0.000066521853
0.000060692834
0.000055087607
0.000049743781
0.000044690767
0.000039950049
0.000035535647
0.000031454729
0.000027708322
0.000024292103
0.000021197213
0.000018411086
0.000015918241
0.000013701034
0.000011740352
0.000010016222
0.000008508350
0.000007196569
0.000006061213
0.000005083401
0.000004245258
0.000003530061
0.000002922336
0.000002407893
0.000001973832
0.000001608499
0.000001301430
0.000001043262
0.000000825633
0.000000641074
0.000000482883
0.000000345007
0.000000221907
0.000000108036
-0.000000000000
-0.000000000000
0.000000131021
0.000000269117
0.000000418566
0.000000586137
0.000000778655
0.000001003563
0.000001269141
0.000001584613
0.000001960343
0.000002407936
0.000002940416
0.000003572275
0.000004319634
0.000005200207
0.000006233400
0.000007440180
0.000008843045
0.000010465782
0.000012333246
0.000014470973
0.000016904746
0.000019660009
0.000022761217
0.000026231043
0.000030089521
0.000034353083
0.000039033545
0.000044137053
0.000049663035
0.000055603180
0.000061940512
0.000068648590
0.000075690898
0.000083020467
0.000090579782
0.000098301007
0.000106106575
0.000113910142
0.000121617922
0.000129130388
0.000136344299
0.000143155016
0.000149459024
0.000155156587
0.000160154434
0.000164368383
0.000167725781
0.000170167668
0.000171650577
0.000172147870
0.000171650577
0.000170167668
0.000167725781
0.000164368383
0.000160154434
0.000155156587
0.000149459024
0.000143155016
0.000136344299
0.000129130388
0.000121617922
0.000113910142
0.000106106575
0.000098301007
0.000090579781
0.000083020467
0.000075690897
0.000068648589
0.000061940511
0.000055603179
0.000049663034
0.000044137052
0.000039033543
0.000034353081
0.000030089519
0.000026231040
0.000022761213
0.000019660005
0.000016904741
0.000014470968
0.000012333239
0.000010465775
0.000008843034
0.000007440170
0.000006233384
0.000005200194
0.000004319613
0.000003572257
0.000002940389
0.000002407911
0.000001960311
0.000001584581
0.000001269106
0.000001003530
0.000000778619
0.000000586107
0.000000418536
0.000000269098
0.000000131002
-0.000000000000
-0.000000000000
0.000000158030
0.000000324631
0.000000505103
0.000000707706
0.000000940777
0.000001213445
0.000001535870
0.000001919398
0.000002376795
0.000002922398
0.000003572298
0.000004344480
0.000005258924
0.000006337707
0.000007604977
0.000009086960
0.000010811781
0.000012809303
0.000015110758
0.000017748349
0.000020754656
0.000024161953
0.000028001364
0.000032301895
0.000037089334
0.000042385049
0.000048204693
0.000054556871
0.000061441787
0.000068849943
0.000076760937
0.000085142422
0.000093949303
0.000103123216
0.000112592383
0.000122271860
0.000132064253
0.000141860900
0.000151543550
0.000160986502
0.000170059180
0.000178629069
0.000186564938
0.000193740222
0.000200036469
0.000205346693
0.000209578506
0.000212656906
0.000214526572
0.000215153602
0.000214526572
0.000212656906
0.000209578506
0.000205346693
0.000200036469
0.000193740222
0.000186564938
0.000178629069
0.000170059180
0.000160986502
0.000151543550
0.000141860900
0.000132064253
0.000122271860
0.000112592383
0.000103123216
0.000093949302
0.000085142422
0.000076760936
0.000068849942
0.000061441785
0.000054556869
0.000048204691
0.000042385047
0.000037089332
0.000032301892
0.000028001360
0.000024161948
0.000020754651
0.000017748343
0.000015110752
0.000012809293
0.000010811772
0.000009086946
0.000007604965
0.000006337689
0.000005258906
0.000004344456
0.000003572274
0.000002922371
0.000002376765
0.000001919367
0.000001535836
0.000001213415
0.000000940745
0.000000707679
0.000000505078
0.000000324614
0.000000158018
-0.000000000000
-0.000000000000
0.000000189708
0.000000389730
0.000000606636
0.000000850430
0.000001131268
0.000001460281
0.000001849880