# vtk DataFile Version 2.0
TITLE = "Quad data"
ASCII
DATASET STRUCTURED_GRID
DIMENSIONS 17 17 1
POINTS 289 FLOAT
0.000000 0.000000 0.000000
0.000000 0.062500 0.000000
0.000000 0.125000 0.000000
0.000000 0.187500 0.000000
0.000000 0.250000 0.000000
0.000000 0.312500 0.000000
0.000000 0.375000 0.000000
0.000000 0.437500 0.000000
0.000000 0.500000 0.000000
0.000000 0.562500 0.000000
0.000000 0.625000 0.000000
0.000000 0.687500 0.000000
0.000000 0.750000 0.000000
0.000000 0.812500 0.000000
0.000000 0.875000 0.000000
0.000000 0.937500 0.000000
0.000000 1.000000 0.000000
0.062500 0.000000 0.000000
0.062500 0.062500 0.000000
0.062500 0.125000 0.000000
0.062500 0.187500 0.000000
0.062500 0.250000 0.000000
0.062500 0.312500 0.000000
0.062500 0.375000 0.000000
0.062500 0.437500 0.000000
0.062500 0.500000 0.000000
0.062500 0.562500 0.000000
0.062500 0.625000 0.000000
0.062500 0.687500 0.000000
0.062500 0.750000 0.000000
0.062500 0.812500 0.000000
0.062500 0.875000 0.000000
0.062500 0.937500 0.000000
0.062500 1.000000 0.000000
0.125000 0.000000 0.000000
0.125000 0.062500 0.000000
0.125000 0.125000 0.000000
0.125000 0.187500 0.000000
0.125000 0.250000 0.000000
0.125000 0.312500 0.000000
0.125000 0.375000 0.000000
0.125000 0.437500 0.000000
0.125000 0.500000 0.000000
0.125000 0.562500 0.000000
0.125000 0.625000 0.000000
0.125000 0.687500 0.000000
0.125000 0.750000 0.000000
0.125000 0.812500 0.000000
0.125000 0.875000 0.000000
0.125000 0.937500 0.000000
0.125000 1.000000 0.000000
0.187500 0.000000 0.000000
0.187500 0.062500 0.000000
0.187500 0.125000 0.000000
0.187500 0.187500 0.000000
0.187500 0.250000 0.000000
0.187500 0.312500 0.000000
0.187500 0.375000 0.000000
0.187500 0.437500 0.000000
0.187500 0.500000 0.000000
0.187500 0.562500 0.000000
0.187500 0.625000 0.000000
0.187500 0.687500 0.000000
0.187500 0.750000 0.000000
0.187500 0.812500 0.000000
0.187500 0.875000 0.000000
0.187500 0.937500 0.000000
0.187500 1.000000 0.000000
0.250000 0.000000 0.000000
0.250000 0.062500 0.000000
0.250000 0.125000 0.000000
0.250000 0.187500 0.000000
0.250000 0.250000 0.000000
0.250000 0.312500 0.000000
0.250000 0.375000 0.000000
0.250000 0.437500 0.000000
0.250000 0.500000 0.000000
0.250000 0.562500 0.000000
0.250000 0.625000 0.000000
0.250000 0.687500 0.000000
0.250000 0.750000 0.000000
0.250000 0.812500 0.000000
0.250000 0.875000 0.000000
0.250000 0.937500 0.000000
0.250000 1.000000 0.000000
0.312500 0.000000 0.000000
0.312500 0.062500 0.000000
0.312500 0.125000 0.000000
0.312500 0.187500 0.000000
0.312500 0.250000 0.000000
0.312500 0.312500 0.000000
0.312500 0.375000 0.000000
0.312500 0.437500 0.000000
0.312500 0.500000 0.000000
0.312500 0.562500 0.000000
0.312500 0.625000 0.000000
0.312500 0.687500 0.000000
0.312500 0.750000 0.000000
0.312500 0.812500 0.000000
0.312500 0.875000 0.000000
0.312500 0.937500 0.000000
0.312500 1.000000 0.000000
0.375000 0.000000 0.000000
0.375000 0.062500 0.000000
0.375000 0.125000 0.000000
0.375000 0.187500 0.000000
0.375000 0.250000 0.000000
0.375000 0.312500 0.000000
0.375000 0.375000 0.000000
0.375000 0.437500 0.000000
0.375000 0.500000 0.000000
0.375000 0.562500 0.000000
0.375000 0.625000 0.000000
0.375000 0.687500 0.000000
0.375000 0.750000 0.000000
0.375000 0.812500 0.000000
0.375000 0.875000 0.000000
0.375000 0.937500 0.000000
0.375000 1.000000 0.000000
0.437500 0.000000 0.000000
0.437500 0.062500 0.000000
0.437500 0.125000 0.000000
0.437500 0.187500 0.000000
0.437500 0.250000 0.000000
0.437500 0.312500 0.000000
0.437500 0.375000 0.000000
0.437500 0.437500 0.000000
0.437500 0.500000 0.000000
0.437500 0.562500 0.000000
0.437500 0.625000 0.000000
0.437500 0.687500 0.000000
0.437500 0.750000 0.000000
0.437500 0.812500 0.000000
0.437500 0.875000 0.000000
0.437500 0.937500 0.000000
0.437500 1.000000 0.000000
0.500000 0.000000 0.000000
0.500000 0.062500 0.000000
0.500000 0.125000 0.000000
0.500000 0.187500 0.000000
0.500000 0.250000 0.000000
0.500000 0.312500 0.000000
0.500000 0.375000 0.000000
0.500000 0.437500 0.000000
0.500000 0.500000 0.000000
0.500000 0.562500 0.000000
0.500000 0.625000 0.000000
0.500000 0.687500 0.000000
0.500000 0.750000 0.000000
0.500000 0.812500 0.000000
0.500000 0.875000 0.000000
0.500000 0.937500 0.000000
0.500000 1.000000 0.000000
0.562500 0.000000 0.000000
0.562500 0.062500 0.000000
0.562500 0.125000 0.000000
0.562500 0.187500 0.000000
0.562500 0.250000 0.000000
0.562500 0.312500 0.000000
0.562500 0.375000 0.000000
0.562500 0.437500 0.000000
0.562500 0.500000 0.000000
0.562500 0.562500 0.000000
0.562500 0.625000 0.000000
0.562500 0.687500 0.000000
0.562500 0.750000 0.000000
0.562500 0.812500 0.000000
0.562500 0.875000 0.000000
0.562500 0.937500 0.000000
0.562500 1.000000 0.000000
0.625000 0.000000 0.000000
0.625000 0.062500 0.000000
0.625000 0.125000 0.000000
0.625000 0.187500 0.000000
0.625000 0.250000 0.000000
0.625000 0.312500 0.000000
0.625000 0.375000 0.000000
0.625000 0.437500 0.000000
0.625000 0.500000 0.000000
0.625000 0.562500 0.000000
0.625000 0.625000 0.000000
0.625000 0.687500 0.000000
0.625000 0.750000 0.000000
0.625000 0.812500 0.000000
0.625000 0.875000 0.000000
0.625000 0.937500 0.000000
0.625000 1.000000 0.000000
0.687500 0.000000 0.000000
0.687500 0.062500 0.000000
0.687500 0.125000 0.000000
0.687500 0.187500 0.000000
0.687500 0.250000 0.000000
0.687500 0.312500 0.000000
0.687500 0.375000 0.000000
0.687500 0.437500 0.000000
0.687500 0.500000 0.000000
0.687500 0.562500 0.000000
0.687500 0.625000 0.000000
0.687500 0.687500 0.000000
0.687500 0.750000 0.000000
0.687500 0.812500 0.000000
0.687500 0.875000 0.000000
0.687500 0.937500 0.000000
0.687500 1.000000 0.000000
0.750000 0.000000 0.000000
0.750000 0.062500 0.000000
0.750000 0.125000 0.000000
0.750000 0.187500 0.000000
0.750000 0.250000 0.000000
0.750000 0.312500 0.000000
0.750000 0.375000 0.000000
0.750000 0.437500 0.000000
0.750000 0.500000 0.000000
0.750000 0.562500 0.000000
0.750000 0.625000 0.000000
0.750000 0.687500 0.000000
0.750000 0.750000 0.000000
0.750000 0.812500 0.000000
0.750000 0.875000 0.000000
0.750000 0.937500 0.000000
0.750000 1.000000 0.000000
0.812500 0.000000 0.000000
0.812500 0.062500 0.000000
0.812500 0.125000 0.000000
0.812500 0.187500 0.000000
0.812500 0.250000 0.000000
0.812500 0.312500 0.000000
0.812500 0.375000 0.000000
0.812500 0.437500 0.000000
0.812500 0.500000 0.000000
0.812500 0.562500 0.000000
0.812500 0.625000 0.000000
0.812500 0.687500 0.000000
0.812500 0.750000 0.000000
0.812500 0.812500 0.000000
0.812500 0.875000 0.000000
0.812500 0.937500 0.000000
0.812500 1.000000 0.000000
0.875000 0.000000 0.000000
0.875000 0.062500 0.000000
0.875000 0.125000 0.000000
0.875000 0.187500 0.000000
0.875000 0.250000 0.000000
0.875000 0.312500 0.000000
0.875000 0.375000 0.000000
0.875000 0.437500 0.000000
0.875000 0.500000 0.000000
0.875000 0.562500 0.000000
0.875000 0.625000 0.000000
0.875000 0.687500 0.000000
0.875000 0.750000 0.000000
0.875000 0.812500 0.000000
0.875000 0.875000 0.000000
0.875000 0.937500 0.000000
0.875000 1.000000 0.000000
0.937500 0.000000 0.000000
0.937500 0.062500 0.000000
0.937500 0.125000 0.000000
0.937500 0.187500 0.000000
0.937500 0.250000 0.000000
0.937500 0.312500 0.000000
0.937500 0.375000 0.000000
0.937500 0.437500 0.000000
0.937500 0.500000 0.000000
0.937500 0.562500 0.000000
0.937500 0.625000 0.000000
0.937500 0.687500 0.000000
0.937500 0.750000 0.000000
0.937500 0.812500 0.000000
0.937500 0.875000 0.000000
0.937500 0.937500 0.000000
0.937500 1.000000 0.000000
1.000000 0.000000 0.000000
1.000000 0.062500 0.000000
1.000000 0.125000 0.000000
1.000000 0.187500 0.000000
1.000000 0.250000 0.000000
1.000000 0.312500 0.000000
1.000000 0.375000 0.000000
1.000000 0.437500 0.000000
1.000000 0.500000 0.000000
1.000000 0.562500 0.000000
1.000000 0.625000 0.000000
1.000000 0.687500 0.000000
1.000000 0.750000 0.000000
1.000000 0.812500 0.000000
1.000000 0.875000 0.000000
1.000000 0.937500 0.000000
1.000000 1.000000 0.000000
POINT_DATA 289
SCALARS phi FLOAT 1
LOOKUP_TABLE default
0.000000000000
0.004893227482
0.009941782678
0.015150596219
0.020524755250
0.026069508402
0.031790270912
0.037692629918
0.043782349911
0.050065378368
0.056547851557
0.063236100534
0.070136657324
0.077256261300
0.084601865766
0.092180644748
0.100000000000
0.005328468057
0.007355722028
0.011275075515
0.015995447734
0.021158070589
0.026638181564
0.032398413093
0.038444345573
0.044815135326
0.051592584797
0.058930618987
0.067123464248
0.076765426016
0.089155329186
0.107425872095
0.140043029031
0.132100860023
0.007412601098
0.009439855069
0.012851692548
0.017189687333
0.022147207619
0.027571845224
0.033412171519
0.039689119524
0.046494135681
0.054013572818
0.062589152798
0.072842326437
0.085924068641
0.104014904226
0.131287712858
0.175450393307
0.167508224299
0.009501081214
0.011528335185
0.014690598516
0.018779738434
0.023592079851
0.029005684264
0.034987839626
0.041594728795
0.048985903627
0.057465052182
0.067561421560
0.080176217443
0.096831268911
0.120058583425
0.153898588918
0.204135882936
0.196193713928
0.011955211265
0.013982465236
0.017017866522
0.020965676708
0.025708326262
0.031175033185
0.037373354876
0.044410080181
0.052521107148
0.062124100574
0.073906942651
0.088965780621
0.109000878493
0.136547779960
0.175125064115
0.228962569760
0.221020400752
0.015289052270
0.017316306241
0.020292422917
0.024180233004
0.028927308933
0.034517486465
0.041008841475
0.048566507912
0.057502610884
0.068334020544
0.081866092225
0.099305269407
0.122388939690
0.153485805129
0.195552005685
0.251740954739
0.243798785731
0.020387239729
0.022414493700
0.025373779119
0.029263549998
0.034081280740
0.039862341794
0.046717645028
0.054871399417
0.064705239155
0.076814835152
0.092081695694
0.111755129491
0.137523818745
0.171529469473
0.216239820204
0.274082682502
0.266140513494
0.028877843642
0.030905097613
0.033876829528
0.037816256837
0.042760407799
0.048790865736
0.056068782867
0.064873112531
0.075644288491
0.089035342664
0.105968801861
0.127690047382
0.155795205824
0.192195046951
0.238963713213
0.298034092704
0.290091923696
0.043827083505
0.045854337476
0.048859519126
0.052884711850
0.057999068668
0.064324285500
0.072066302884
0.081551401750
0.093266417692
0.107902087000
0.126395093811
0.149958062465
0.180078056382
0.218455860862
0.266857804563
0.326871938475
0.318929769467
0.071058588814
0.073085842785
0.076139077608
0.080275355480
0.085589912069
0.092238019685
0.100463272491
0.110630193475
0.123259437025
0.139062785939
0.158972187724
0.184152421933
0.215981751384
0.255981961617
0.305683823283
0.366432654206
0.358490485198
0.121669296064
0.123696550035
0.126806456387
0.131067675108
0.136595667300
0.143572037272
0.152269589129
0.163080946063
0.176548314419
0.193390769020
0.214523084421
0.241056987799
0.274272906272
0.315550055736
0.366248313173
0.427549698370
0.419607529362
0.216831935788
0.218859189759
0.222028190274
0.226414945352
0.232147963075
0.239426245972
0.248541530930
0.259902917058
0.274061486380
0.291731311448
0.313801483719
0.341331853611
0.375523839135
0.417658105255
0.468994367862
0.530636062563
0.522693893555
0.396963712923
0.398990966894
0.402215851534
0.406713620174
0.412614309185
0.420121497293
0.429532018465
0.441256507945
0.455839366747
0.473975303927
0.496518434427
0.524479129412
0.559003637905
0.601331547094
0.652724173835
0.714348468324
0.706406299316
0.739229340434
0.741256594405
0.744534856135
0.749116230205
0.755109301161
0.762701501862
0.772174217567
0.783917603039
0.798445699601
0.816410055338
0.838609766938
0.865997025882
0.899679844093
0.940926160469
0.991167564610
1.051957673317
1.044015504309
1.390946845182
1.392974099153
1.396336522828
1.400981266819
1.406946502799
1.414370796990
1.423489096497
1.434635756614
1.448252988528
1.464901814125
1.485275060902
1.510216906176
1.540763566590
1.578239044510
1.624467031465
1.682137584333
1.674195415325
2.633315615225
2.635342869196
2.639002326076
2.643771682397
2.649545400771
2.656379066848
2.664419019545
2.673885510809
2.685072838761
2.698355996456
2.714202941295
2.733200261127
2.756118746338
2.784099103660
2.819211282533
2.866253141374
2.858310972366
5.000000000000
5.004893227482
5.009941782678
5.015150596219
5.020524755250
5.026069508402
5.031790270912
5.037692629918
5.043782349911
5.050065378368
5.056547851557
5.063236100534
5.070136657324
5.077256261300
5.084601865766
5.092180644748
5.100000000000
