# vtk DataFile Version 2.0
TITLE = "Quad data"
ASCII
DATASET STRUCTURED_GRID
DIMENSIONS 65 65 1
POINTS 4225 FLOAT
0.000000 0.000000 0.000000
0.000000 0.015625 0.000000
0.000000 0.031250 0.000000
0.000000 0.046875 0.000000
0.000000 0.062500 0.000000
0.000000 0.078125 0.000000
0.000000 0.093750 0.000000
0.000000 0.109375 0.000000
0.000000 0.125000 0.000000
0.000000 0.140625 0.000000
0.000000 0.156250 0.000000
0.000000 0.171875 0.000000
0.000000 0.187500 0.000000
0.000000 0.203125 0.000000
0.000000 0.218750 0.000000
0.000000 0.234375 0.000000
0.000000 0.250000 0.000000
0.000000 0.265625 0.000000
0.000000 0.281250 0.000000
0.000000 0.296875 0.000000
0.000000 0.312500 0.000000
0.000000 0.328125 0.000000
0.000000 0.343750 0.000000
0.000000 0.359375 0.000000
0.000000 0.375000 0.000000
0.000000 0.390625 0.000000
0.000000 0.406250 0.000000
0.000000 0.421875 0.000000
0.000000 0.437500 0.000000
0.000000 0.453125 0.000000
0.000000 0.468750 0.000000
0.000000 0.484375 0.000000
0.000000 0.500000 0.000000
0.000000 0.515625 0.000000
0.000000 0.531250 0.000000
0.000000 0.546875 0.000000
0.000000 0.562500 0.000000
0.000000 0.578125 0.000000
0.000000 0.593750 0.000000
0.000000 0.609375 0.000000
0.000000 0.625000 0.000000
0.000000 0.640625 0.000000
0.000000 0.656250 0.000000
0.000000 0.671875 0.000000
0.000000 0.687500 0.000000
0.000000 0.703125 0.000000
0.000000 0.718750 0.000000
0.000000 0.734375 0.000000
0.000000 0.750000 0.000000
0.000000 0.765625 0.000000
0.000000 0.781250 0.000000
0.000000 0.796875 0.000000
0.000000 0.812500 0.000000
0.000000 0.828125 0.000000
0.000000 0.843750 0.000000
0.000000 0.859375 0.000000
0.000000 0.875000 0.000000
0.000000 0.890625 0.000000
0.000000 0.906250 0.000000
0.000000 0.921875 0.000000
0.000000 0.937500 0.000000
0.000000 0.953125 0.000000
0.000000 0.968750 0.000000
0.000000 0.984375 0.000000
0.000000 1.000000 0.000000
0.015625 0.000000 0.000000
0.015625 0.015625 0.000000
0.015625 0.031250 0.000000
0.015625 0.046875 0.000000
0.015625 0.062500 0.000000
0.015625 0.078125 0.000000
0.015625 0.093750 0.000000
0.015625 0.109375 0.000000
0.015625 0.125000 0.000000
0.015625 0.140625 0.000000
0.015625 0.156250 0.000000
0.015625 0.171875 0.000000
0.015625 0.187500 0.000000
0.015625 0.203125 0.000000
0.015625 0.218750 0.000000
0.015625 0.234375 0.000000
0.015625 0.250000 0.000000
0.015625 0.265625 0.000000
0.015625 0.281250 0.000000
0.015625 0.296875 0.000000
0.015625 0.312500 0.000000
0.015625 0.328125 0.000000
0.015625 0.343750 0.000000
0.015625 0.359375 0.000000
0.015625 0.375000 0.000000
0.015625 0.390625 0.000000
0.015625 0.406250 0.000000
0.015625 0.421875 0.000000
0.015625 0.437500 0.000000
0.015625 0.453125 0.000000
0.015625 0.468750 0.000000
0.015625 0.484375 0.000000
0.015625 0.500000 0.000000
0.015625 0.515625 0.000000
0.015625 0.531250 0.000000
0.015625 0.546875 0.000000
0.015625 0.562500 0.000000
0.015625 0.578125 0.000000
0.015625 0.593750 0.000000
0.015625 0.609375 0.000000
0.015625 0.625000 0.000000
0.015625 0.640625 0.000000
0.015625 0.656250 0.000000
0.015625 0.671875 0.000000
0.015625 0.687500 0.000000
0.015625 0.703125 0.000000
0.015625 0.718750 0.000000
0.015625 0.734375 0.000000
0.015625 0.750000 0.000000
0.015625 0.765625 0.000000
0.015625 0.781250 0.000000
0.015625 0.796875 0.000000
0.015625 0.812500 0.000000
0.015625 0.828125 0.000000
0.015625 0.843750 0.000000
0.015625 0.859375 0.000000
0.015625 0.875000 0.000000
0.015625 0.890625 0.000000
0.015625 0.906250 0.000000
0.015625 0.921875 0.000000
0.015625 0.937500 0.000000
0.015625 0.953125 0.000000
0.015625 0.968750 0.000000
0.015625 0.984375 0.000000
0.015625 1.000000 0.000000
0.031250 0.000000 0.000000
0.031250 0.015625 0.000000
0.031250 0.031250 0.000000
0.031250 0.046875 0.000000
0.031250 0.062500 0.000000
0.031250 0.078125 0.000000
0.031250 0.093750 0.000000
0.031250 0.109375 0.000000
0.031250 0.125000 0.000000
0.031250 0.140625 0.000000
0.031250 0.156250 0.000000
0.031250 0.171875 0.000000
0.031250 0.187500 0.000000
0.031250 0.203125 0.000000
0.031250 0.218750 0.000000
0.031250 0.234375 0.000000
0.031250 0.250000 0.000000
0.031250 0.265625 0.000000
0.031250 0.281250 0.000000
0.031250 0.296875 0.000000
0.031250 0.312500 0.000000
0.031250 0.328125 0.000000
0.031250 0.343750 0.000000
0.031250 0.359375 0.000000
0.031250 0.375000 0.000000
0.031250 0.390625 0.000000
0.031250 0.406250 0.000000
0.031250 0.421875 0.000000
0.031250 0.437500 0.000000
0.031250 0.453125 0.000000
0.031250 0.468750 0.000000
0.031250 0.484375 0.000000
0.031250 0.500000 0.000000
0.031250 0.515625 0.000000
0.031250 0.531250 0.000000
0.031250 0.546875 0.000000
0.031250 0.562500 0.000000
0.031250 0.578125 0.000000
0.031250 0.593750 0.000000
0.031250 0.609375 0.000000
0.031250 0.625000 0.000000
0.031250 0.640625 0.000000
0.031250 0.656250 0.000000
0.031250 0.671875 0.000000
0.031250 0.687500 0.000000
0.031250 0.703125 0.000000
0.031250 0.718750 0.000000
0.031250 0.734375 0.000000
0.031250 0.750000 0.000000
0.031250 0.765625 0.000000
0.031250 0.781250 0.000000
0.031250 0.796875 0.000000
0.031250 0.812500 0.000000
0.031250 0.828125 0.000000
0.031250 0.843750 0.000000
0.031250 0.859375 0.000000
0.031250 0.875000 0.000000
0.031250 0.890625 0.000000
0.031250 0.906250 0.000000
0.031250 0.921875 0.000000
0.031250 0.937500 0.000000
0.031250 0.953125 0.000000
0.031250 0.968750 0.000000
0.031250 0.984375 0.000000
0.031250 1.000000 0.000000
0.046875 0.000000 0.000000
0.046875 0.015625 0.000000
0.046875 0.031250 0.000000
0.046875 0.046875 0.000000
0.046875 0.062500 0.000000
0.046875 0.078125 0.000000
0.046875 0.093750 0.000000
0.046875 0.109375 0.000000
0.046875 0.125000 0.000000
0.046875 0.140625 0.000000
0.046875 0.156250 0.000000
0.046875 0.171875 0.000000
0.046875 0.187500 0.000000
0.046875 0.203125 0.000000
0.046875 0.218750 0.000000
0.046875 0.234375 0.000000
0.046875 0.250000 0.000000
0.046875 0.265625 0.000000
0.046875 0.281250 0.000000
0.046875 0.296875 0.000000
0.046875 0.312500 0.000000
0.046875 0.328125 0.000000
0.046875 0.343750 0.000000
0.046875 0.359375 0.000000
0.046875 0.375000 0.000000
0.046875 0.390625 0.000000
0.046875 0.406250 0.000000
0.046875 0.421875 0.000000
0.046875 0.437500 0.000000
0.046875 0.453125 0.000000
0.046875 0.468750 0.000000
0.046875 0.484375 0.000000
0.046875 0.500000 0.000000
0.046875 0.515625 0.000000
0.046875 0.531250 0.000000
0.046875 0.546875 0.000000
0.046875 0.562500 0.000000
0.046875 0.578125 0.000000
0.046875 0.593750 0.000000
0.046875 0.609375 0.000000
0.046875 0.625000 0.000000
0.046875 0.640625 0.000000
0.046875 0.656250 0.000000
0.046875 0.671875 0.000000
0.046875 0.687500 0.000000
0.046875 0.703125 0.000000
0.046875 0.718750 0.000000
0.046875 0.734375 0.000000
0.046875 0.750000 0.000000
0.046875 0.765625 0.000000
0.046875 0.781250 0.000000
0.046875 0.796875 0.000000
0.046875 0.812500 0.000000
0.046875 0.828125 0.000000
0.046875 0.843750 0.000000
0.046875 0.859375 0.000000
0.046875 0.875000 0.000000
0.046875 0.890625 0.000000
0.046875 0.906250 0.000000
0.046875 0.921875 0.000000
0.046875 0.937500 0.000000
0.046875 0.953125 0.000000
0.046875 0.968750 0.000000
0.046875 0.984375 0.000000
0.046875 1.000000 0.000000
0.062500 0.000000 0.000000
0.062500 0.015625 0.000000
0.062500 0.031250 0.000000
0.062500 0.046875 0.000000
0.062500 0.062500 0.000000
0.062500 0.078125 0.000000
0.062500 0.093750 0.000000
0.062500 0.109375 0.000000
0.062500 0.125000 0.000000
0.062500 0.140625 0.000000
0.062500 0.156250 0.000000
0.062500 0.171875 0.000000
0.062500 0.187500 0.000000
0.062500 0.203125 0.000000
0.062500 0.218750 0.000000
0.062500 0.234375 0.000000
0.062500 0.250000 0.000000
0.062500 0.265625 0.000000
0.062500 0.281250 0.000000
0.062500 0.296875 0.000000
0.062500 0.312500 0.000000
0.062500 0.328125 0.000000
0.062500 0.343750 0.000000
0.062500 0.359375 0.000000
0.062500 0.375000 0.000000
0.062500 0.390625 0.000000
0.062500 0.406250 0.000000
0.062500 0.421875 0.000000
0.062500 0.437500 0.000000
0.062500 0.453125 0.000000
0.062500 0.468750 0.000000
0.062500 0.484375 0.000000
0.062500 0.500000 0.000000
0.062500 0.515625 0.000000
0.062500 0.531250 0.000000
0.062500 0.546875 0.000000
0.062500 0.562500 0.000000
0.062500 0.578125 0.000000
0.062500 0.593750 0.000000
0.062500 0.609375 0.000000
0.062500 0.625000 0.000000
0.062500 0.640625 0.000000
0.062500 0.656250 0.000000
0.062500 0.671875 0.000000
0.062500 0.687500 0.000000
0.062500 0.703125 0.000000
0.062500 0.718750 0.000000
0.062500 0.734375 0.000000
0.062500 0.750000 0.000000
0.062500 0.765625 0.000000
0.062500 0.781250 0.000000
0.062500 0.796875 0.000000
0.062500 0.812500 0.000000
0.062500 0.828125 0.000000
0.062500 0.843750 0.000000
0.062500 0.859375 0.000000
0.062500 0.875000 0.000000
0.062500 0.890625 0.000000
0.062500 0.906250 0.000000
0.062500 0.921875 0.000000
0.062500 0.937500 0.000000
0.062500 0.953125 0.000000
0.062500 0.968750 0.000000
0.062500 0.984375 0.000000
0.062500 1.000000 0.000000
0.078125 0.000000 0.000000
0.078125 0.015625 0.000000
0.078125 0.031250 0.000000
0.078125 0.046875 0.000000
0.078125 0.062500 0.000000
0.078125 0.078125 0.000000
0.078125 0.093750 0.000000
0.078125 0.109375 0.000000
0.078125 0.125000 0.000000
0.078125 0.140625 0.000000
0.078125 0.156250 0.000000
0.078125 0.171875 0.000000
0.078125 0.187500 0.000000
0.078125 0.203125 0.000000
0.078125 0.218750 0.000000
0.078125 0.234375 0.000000
0.078125 0.250000 0.000000
0.078125 0.265625 0.000000
0.078125 0.281250 0.000000
0.078125 0.296875 0.000000
0.078125 0.312500 0.000000
0.078125 0.328125 0.000000
0.078125 0.343750 0.000000
0.078125 0.359375 0.000000
0.078125 0.375000 0.000000
0.078125 0.390625 0.000000
0.078125 0.406250 0.000000
0.078125 0.421875 0.000000
0.078125 0.437500 0.000000
0.078125 0.453125 0.000000
0.078125 0.468750 0.000000
0.078125 0.484375 0.000000
0.078125 0.500000 0.000000
0.078125 0.515625 0.000000
0.078125 0.531250 0.000000
0.078125 0.546875 0.000000
0.078125 0.562500 0.000000
0.078125 0.578125 0.000000
0.078125 0.593750 0.000000
0.078125 0.609375 0.000000
0.078125 0.625000 0.000000
[...]
POINT_DATA 4225
SCALARS phi FLOAT 1
LOOKUP_TABLE default
0.000000000000
0.000000059605
0.000000953674
0.000004827976
0.000015258789
0.000037252903
0.000077247620
0.000143110752
0.000244140625
0.000391066074
0.000596046448
0.000872671604
0.001235961914
0.001702368259
0.002289772034
0.003017485142
0.003906250000
0.004978239536
0.006257057190
0.007767736912
0.009536743164
0.011591970921
0.013962745667
0.016679823399
0.019775390625
0.023283064365
0.027237892151
0.031676352024
0.036636352539
0.042157232761
0.048279762268
0.055046141148
0.062500000000
0.070686399937
0.079651832581
0.089444220066
0.100112915039
0.111708700657
0.124283790588
0.137891829014
0.152587890625
0.168428480625
0.185471534729
0.203776419163
0.223403930664
0.244416296482
0.266877174377
0.290851652622
0.316406250000
0.343608915806
0.372529029846
0.403237402439
0.435806274414
0.470309317112
0.506821632385
0.545419752598
0.586181640625
0.629186689854
0.674515724182
0.722250998020
0.772476196289
0.825276434422
0.880738258362
0.938949644566
1.000000000000
0.000000059605
-0.323488689655
-0.162835637711
-0.121256333926
-0.101571060806
-0.082759223584
-0.063325158404
-0.045343724598
-0.030420136665
-0.019083786926
-0.011065470932
-0.005695157395
-0.002207955202
0.000078027273
0.001689896302
0.002996459239
0.004237972126
0.005564545879
0.007069946273
0.008816162537
0.010849068570
0.013207430611
0.015927661033
0.019046142796
0.022600283212
0.026628949441
0.031172623398
0.036273440609
0.041975188895
0.048323298962
0.055364837950
0.063148507678
0.071724646025
0.081145229644
0.091463877154
0.102735853163
0.115018074404
0.128369119604
0.142849244223
0.158520399436
0.175446251454
0.193692191938
0.213325323404
0.234414396491
0.257029672889
0.281242696300
0.307125986496
0.334752745116
0.364196791914
0.395533136911
0.428839788564
0.464201441326
0.501715206696
0.541496838945
0.583681835949
0.628408116337
0.675755862153
0.725612552213
0.777457295670
0.830219072321
0.882969778552
0.939218882973
1.024013884897
1.244253745917
0.998535215855
0.000000953674
-0.162835637711
0.017653747722
0.041001271819
0.031640925249
0.021169231556
0.014443443652
0.010432771872
0.007797816749
0.005842029703
0.004339388359
0.003258757005
0.002602147128
0.002348297705
0.002452445479
0.002863876485
0.003541374770
0.004460509851
0.005613919017
0.007007939597
0.008658454085
0.010587488046
0.012820977410
0.015387517208
0.018317733702
0.021643980803
0.025400181855
0.029621734522
0.034345449498
0.039609513819
0.045453473373
0.051918228573
0.059046037095
0.066880519302
0.075466664504
0.084850838798
0.095080797049
0.106205702288
0.118276154791
0.131344229713
0.145463515606
0.160689135756
0.177077720638
0.194687285912
0.213576964037
0.233806553859
0.255435915814
0.278524383259
0.303130613802
0.329313669072
0.357136494842
0.386673071564
0.418019612647
0.451306958174
0.486703635581
0.524384617765
0.564419946597
0.606522668161
0.649639247264
0.691634008285
0.730285691116
0.769753139264
0.844871812850
1.097162694836
0.994141578674
0.000004827976
-0.121256333926
0.041001271819
0.054823935850
0.039085156381
0.024537416110
0.015434323907
0.010157679676
0.006931583724
0.004777895361
0.003292983052
0.002330240610
0.001816779777
0.001687027320
0.001875603846
0.002327741155
0.003007601808
0.003899710162
0.005005433190
0.006337826492
0.007917139596
0.009767833713
0.011916992795
0.014393638333
0.017228484291
0.020453842893
0.024103556386
0.028212927516
0.032818658005
0.037958806377
0.043672767537
0.050001268946
0.056986375836
0.064671499561
0.073101406735
0.082322230465
0.092381487628
0.103328107121
0.115212472512
0.128086477630
0.142003584029
0.157018854127
0.173188913805
0.190571777724
0.209226460714
0.229212321043
0.250588171273
0.273411396777
0.297737685749
0.323622500168
0.351125976805
0.380323117342
0.411319927715
0.444271745226
0.479389475544
0.516899757853
0.556896739930
0.599002700505
0.641808380643
0.682392103299
0.717355199112
0.750080141809
0.817352253127
1.068499195447
0.986821234226
0.000015258789
-0.101571060806
0.031640925249
0.039085156381
0.023439652760
0.010917496512
0.004379692420
0.001651642469
0.000684269919
0.000375305721
0.000294507183
0.000330368147
0.000477949925
0.000750532882
0.001157608726
0.001706924975
0.002409765000
0.003283067686
0.004348644400
0.005631403142
0.007157945689
0.008955952007
0.011054162774
0.013482606151
0.016272808594
0.019457886988
0.023072532281
0.027152938900
0.031736730062
0.036862905984
0.042571820220
0.048905177028
0.055906039478
0.063618840696
0.072089395466
0.081364914240
0.091494024906
0.102526808910
0.114514856379
0.127511338601
0.141571083962
0.156750623965
0.173108150113
0.190703295640
0.209596642310
0.229848879121
0.251519651147
0.274666392245
0.299343892183
0.325606012425
0.353511680961
0.383137551644
0.414598324350
0.448070468052
0.483802572888
0.522072208730
0.563015800336
0.606233792566
0.650132313465
0.691321017567
0.725598836247
0.755425926763
0.817146305872
1.060397254913
0.976577758789
0.000037252903
-0.082759223584
0.021169231556
0.024537416110
0.010917496512
0.001253291717
-0.002766309459
-0.003470482590
-0.002874506495
-0.002028017157
-0.001305322683
-0.000755379144
-0.000316572267
0.000088083175
0.000522486835
0.001035977599
0.001668335963
0.002453920659
0.003423907885
0.004607493783
0.006032838053
0.007727999067
0.009721775739
0.012044313108
0.014727417712
0.017804631147
0.021311160803
0.025283762885
0.029760639554
0.034781375276
0.040386911480
0.046619546739
0.053522948524
0.061142167279
0.069523649955
0.078715255983
0.088766282547
0.099727507356
0.111651254813
0.124591483985
0.138603882226
0.153745925082
0.170076832156
0.187657316002
0.206549003317
0.226813436438
0.248510690297
0.271697934999
0.296428804512
0.322755206603
0.350734056322
0.380441759509
0.411997792403
0.445592957674
0.481504127935
0.520051695758
0.561419601901
0.605231449459
0.649837810763
0.691641679618
0.726026149977
0.754823313169
0.813509650554
1.049994593274
0.963416159153
0.000077247620
-0.063325158404
0.014443443652
0.015434323907
0.004379692420
-0.002766309459
-0.005115958228
-0.004826811544
-0.003664553939
-0.002515655128
-0.001661925989
-0.001096233576
-0.000717509972
-0.000418815653
-0.000114369668
0.000259304757
0.000749406255
0.001392783469
0.002220175720
0.003259097045
0.004535888749
0.006077201784
0.007910980473
0.010066989556
0.012576975565
0.015474595361
0.018795244249
0.022575880927
0.026854899750
0.031672061735
0.037068472655
0.043086588799
0.049770233247
0.057164612547
0.065316331462
0.074273409947
0.084085310787
0.094802987629
0.106478960527
0.119167417652
0.132924325431
0.147807503042
0.163876581923
0.181192733266
0.199818024556
0.219814295186
0.241241578555
0.264156420924
0.288611031117
0.314655052581
0.342342698406
0.371748416866
0.402992754489
0.436274055722
0.471887195342
0.510183763749
0.551390282150
0.595173660581
0.639905647856
0.681953285577
0.716558992503
0.745215748636
0.802546609759
1.033983167912
0.947342872620
0.000143110752
-0.045343724598
0.010432771872
0.010157679676
0.001651642469
-0.003470482590
-0.004826811544
-0.004234342404
-0.003115141705
-0.002152413790
-0.001531088175
-0.001203472428
-0.001052845277
-0.000966973026
-0.000859680033
-0.000670010301
-0.000355044173
0.000117109970
0.000772503927
0.001634856496
0.002727838617
0.004076475931
0.005707883238
0.007651504820
0.009939034510
0.012604179667
0.015682397581
0.019210681663
0.023227425978
0.027772362511
0.032886549003
0.038612382794
0.044993621977
0.052075404042
0.059904260860
0.068528135612
0.077996411573
0.088359963926
0.099671242834
0.111984386855
0.125355347978
0.139841980880
0.155504010205
0.172402747811
0.190600406035
0.210158880778
0.231138020860
0.253593740114
0.277576947374
0.303135182625
0.330319868930
0.359202585709
0.389902292159
0.422619316330
0.457657223241
0.495386457058
0.536065308470
0.579406082445
0.623836626654
0.665779987566
0.700496392997
0.729316883279
0.786037099074
1.013127504464
0.928365767002
0.000244140625
-0.030420136665
0.007797816749
0.006931583724
0.000684269919
-0.002874506495
-0.003664553939
-0.003115141705
-0.002298648671
-0.001702676877
-0.001429336420
-0.001406994024
-0.001519497085
-0.001663122794
-0.001761702213
-0.001763696949
-0.001634355763
-0.001348411148
-0.000884760094
-0.000223017865
0.000658519609
0.001783918758
0.003179970446
0.004876121020
0.006904179784
0.009297963890
0.012092985823
0.015326232945
0.019036044711
0.023262067138
0.028045254975
0.033427894644
0.039453629619
0.046167479893
0.053615856036
0.061846574973
0.070908888751
0.080853538644
0.091732843816
0.103600824161
0.116513338205
0.130528186584
0.145705090293
0.162105407688
0.179791424860
0.198825079466
0.219266121946
0.241170066197
0.264586918888
0.289562621398
0.316146204173
0.344406200762
0.374458439661
0.406501252179
0.440839458177
0.477851334476
0.517814583133
0.560479756345
0.604340839942
0.645918839135
0.680571300042
0.709552960610
0.765804232964
0.988399754475
0.906494140625
0.000391066074
-0.019083786926
0.005842029703
0.004777895361
0.000375305721
-0.002028017157
-0.002515655128
-0.002152413790
-0.001702676877
-0.001490065875
-0.001555126900
-0.001816637987
-0.002168744958
-0.002522470999
-0.002815063563
-0.003005606796
-0.003067189505
-0.002979966527
-0.002726260577
-0.002287559932
-0.001642935548
-0.000768422201
0.000362998062
0.001781087599
0.003517925893
0.005607501613
0.008085398760
0.010988599117
0.014355387780
0.018225331332
0.022639295704
0.027639477231
0.033269430608
0.039574087631
0.046599769114
0.054394198523
0.063006529674
0.072487401741
0.082889031571
0.094265343530
0.106672117826
0.120167106952
0.134810026878
0.150662282071
0.167786251181
0.186243982846
0.206095293088
0.227395604590
0.250194510237
0.274536999466
0.300470371952
0.328060444373
0.357419285641
0.388740748038
0.422325605906
0.458551362843
0.497704203677
0.539563415121
0.582688297531
0.623714749961
0.658135076339
0.687161121625
0.742810853872
0.960334862811
0.881738722324
0.000596046448
-0.011065470932
0.004339388359
0.003292983052
0.000294507183
-0.001305322683
-0.001661925989
-0.001531088175
-0.001429336420
-0.001555126900
-0.001908630126
-0.002409685872
-0.002967628499
-0.003509893813
-0.003986891842
-0.004366937357
-0.004629007605
-0.004756620945
-0.004733677024
-0.004542070240
-0.004160605401
-0.003564758086
-0.002726914549
-0.001616822557
-0.000202070884
0.001551509414
0.003679566694
0.006219073306
0.009208266975
0.012686653698
0.016695039394
0.021275566461
0.026471741994
0.032328454153
0.038891980863
0.046210000528
0.054331617837
0.063307418443
0.073189563091
0.084031921969
0.095890230731
0.108822217940
0.122887609891
0.138147869826
0.154665494157
0.172502707943
0.191719539857
0.212371600716
0.234508525959
0.258174993523
0.283417314644
0.310299193800
0.338928946942
0.369494663972
0.402289702806
0.437684802533
0.475966441962
0.516934546542
0.559210463760
0.599552481575
0.633606782777
0.662551206994
0.717393466049
0.929130845703
0.854111671448
0.000872671604
-0.005695157395
0.003258757005
0.002330240610
0.000330368147
-0.000755379144
-0.001096233576
-0.001203472428
-0.001406994024
-0.001816637987
-0.002409685872
-0.003113749911
-0.003854807323
-0.004575793546
-0.005238367228
-0.005817827419
-0.006296841990
-0.006660381706
-0.006892427201
-0.006974228195
-0.006883671278
-0.006595329405
-0.006080857018
-0.005309494246
-0.004248532753
-0.002863669131
-0.001119226526
0.001021739548
0.003597418260
0.006647267564
0.010212055500
0.014333898745
0.019056288662
0.024424103857
0.030483614911
0.037282491719
0.044869826833
0.053296188825
0.062613716516
0.072876255386
0.084139518381
0.096461221831
0.109901103392
0.124520679475
0.140382563925
0.157549186398
0.176080881475
0.196033654080
0.217457549065
0.240397485761
0.264899488243
0.291025844613
0.318881486106
0.348648275715
0.380610254665
0.415127628383
0.452481779891
0.492487882153
0.533827371515
0.573386621273
0.606978653343
0.635746396751
0.689590168375
0.894822893622
0.823626577854
0.001235961914
-0.002207955202
0.002602147128
0.001816779777
0.000477949925
-0.000316572267
-0.000717509972
-0.001052845277
-0.001519497085
-0.002168744958
-0.002967628499
-0.003854807323
-0.004772072759
-0.005675616559
-0.006535860066
-0.007332821860
-0.008050995010
-0.008675395949
-0.009189129494
-0.009572235164
-0.009801416960
-0.009850282558
-0.009689804299
-0.009288809167
-0.008614388097
-0.007632179846
-0.006306529350
-0.004600545941
-0.002476096304
0.000106234667
0.003187189716
0.006808876237
0.011014788098
0.015849813413
0.021360234973
0.027593734109
0.034599411305
0.042427837470
0.051131146770
0.060763172761
0.071379611020
0.083038160632
0.095798553724
0.109722333203
0.124872202533
0.141310785504
0.159098760166
0.178292653247
0.198943183204
0.221095944795
0.244797268979
0.270108687321
0.297132252392
0.326043594992
0.357116492378
0.390698432121
0.427062526639
0.466036372378
0.506361806677
0.545060013846
0.578122754724
0.606653960699
0.659345654838
0.857394382235
0.790298461914
0.001702368259
0.000078027273
0.002348297705
0.001687027320
0.000750532882
0.000088083175
-0.000418815653
-0.000966973026
-0.001663122794
-0.002522470999
-0.003509893813
-0.004575793546
-0.005675616559
-0.006776044304
-0.007853781599
-0.008891636187
-0.009874560544
-0.010786748268
-0.011609961383
-0.012322858017
-0.012900980550
-0.013317094509
-0.013541647362
-0.013543200780
-0.013288761792
-0.012743991563
-0.011873304414
-0.010639886468
-0.009005667049
-0.006931271493
-0.004375975621
-0.001297673176
0.002347140400
0.006603370561
0.011517319921
0.017136688858
0.023510593386
0.030689613798
0.038725884809
0.047673229277
0.057587319770
0.068525822519
0.080548436334
0.093716691131
0.108093334584
0.123741147280
0.140721146082
0.159090442800
0.178900601804
0.200198208643
0.223030363623
0.247458393413
0.273581961448
0.301570640567
0.331687503574
0.364266095081
0.399569549655
0.437436942907
0.476672800053
0.514441388764
0.546925674613
0.575185878570
0.626603644719
0.816827380537
0.754143774509
0.002289772034
0.001689896302
0.002452445479
0.001875603846
0.001157608726
0.000522486835
-0.000114369668
-0.000859680033
-0.001761702213
-0.002815063563
-0.003986891842
-0.005238367228
-0.006535860066
-0.007853781599
-0.009172952303
-0.010477492333
-0.011751934404
-0.012979225985
-0.014139679716
-0.015210661126
-0.016166737340
-0.016980044165
-0.017620697501
-0.018057145630
-0.018256417086
-0.018184259719
-0.017805190458
-0.017082485039
-0.015978136807
-0.014452807839
-0.012465787647
-0.009974966961
-0.006936827699
-0.003306445347
0.000962503650
0.005917739713
0.011608395463
0.018085061382
0.025399872205
0.033606636296
0.042760993484
0.052920558367
0.064144965997
0.076495690534
0.090035472250
0.104827198213
0.120932194086
0.138408175348
0.157307653564
0.177678419133
0.199568676510
0.223039963873
0.248189942931
0.275182301071
0.304269154927
0.335769355249
0.369935174132
0.406617372926
0.444686780571
0.481460242697
0.513325178177
0.541293569178
0.591334587712
0.773118161008
0.715180397034
0.003017485142
0.002996459239
0.002863876485
0.002327741155
0.001706924975
0.001035977599
0.000259304757
-0.000670010301
-0.001763696949
-0.003005606796
-0.004366937357
-0.005817827419
-0.007332821860
-0.008891636187
-0.010477492333
-0.012074805278
-0.013667213901
-0.015236316630
-0.016761095897
-0.018217850870
-0.019580425847
-0.020820555396
-0.021908203647
-0.022811830685
-0.023498563010
-0.023934274372
-0.024083598783
-0.023909902114
-0.023375236186
-0.022440293169
-0.021064371057
-0.019205354661
-0.016819711598
-0.013862498986
-0.010287373700
-0.006046596652
-0.001091019690
0.004629956898
0.011168466138
0.018578297766
0.026915049869
0.036236268647
0.046601498089
0.058072117426
0.070710810292
0.084580518081
0.099742834502
0.116256071348
0.134173740360
0.153544973982
0.174419308324
0.196858778851
0.220959300468
0.246878752923
0.274858045223
0.305200743564
0.338147744834
0.373562293527
0.410385880480
0.446098168435
0.477304845654
0.504965467681
0.553535177400
0.726277394395
0.673427641392
0.003906250000
0.004237972126
0.003541374770
0.003007601808
0.002409765000
0.001668335963
0.000749406255
-0.000355044173
-0.001634355763
-0.003067189505
-0.004629007605
-0.006296841990
-0.008050995010
-0.009874560544
-0.011751934404
-0.013667213901
-0.015602973342
-0.017539561918
-0.019454865724
-0.021324389583
-0.023121505775
-0.024817747272
-0.026383066379
-0.027786020314
-0.028993876227
-0.029972647580
-0.030687082706
-0.031100627588
-0.031175381306
-0.030872056954
-0.030149955095
-0.028966951897
-0.027279500397
-0.025042640531
-0.022210011310
-0.018733856480
-0.014565013274
-0.009652873172
-0.003945305477
0.002611458673
0.010072969650
0.018496692884
0.027942059908
0.038470322944
0.050144067010
0.063026240942
0.077178665445
0.092660230252
0.109525472103
0.127824950823
0.147609681532
0.168942374802
0.191917327278
0.216686565486
0.243479452723
0.272583671494
0.304228337287
0.338290210254
0.373786136270
0.408369194366
0.438877462303
0.466214176108
0.513219678910
0.676325805835
0.628906250000
0.004978239536
0.005564545879
0.004460509851
0.003899710162
0.003283067686
0.002453920659
0.001392783469
0.000117109970
-0.001348411148
-0.002979966527
-0.004756620945
-0.006660381706
-0.008675395949
-0.010786748268
-0.012979225985
-0.015236316630
-0.017539561918
-0.019868267679
-0.022199491719
-0.024508203139
-0.026767513295
-0.028948903794
-0.031022407191
-0.032956723089
-0.034719271967
-0.036276200462
-0.037592356033
-0.038631248042
-0.039355008557
-0.039724361438
-0.039698603857
-0.039235600820
-0.038291790608
-0.036822197014
-0.034780442480
-0.032118754416
-0.028787955425
-0.024737427357
-0.019915040780
-0.014267047566
-0.007737947664
-0.000270364058
0.008195007268
0.017719267385
0.028364869753
0.040194732532
0.053270868367
0.067652725879
0.083395879131
0.100552370497
0.119174788356
0.139326617629
0.161100563881
0.184642640986
0.210170220894
0.237954426724
0.268212164507
0.300834786538
0.334919283739
0.368302863343
0.398070217259
0.425064581083
0.470411626896
0.623289909827
0.581638395786
0.006257057190
0.007069946273
0.005613919017
0.005005433190
0.004348644400
0.003423907885
0.002220175720
0.000772503927
-0.000884760094
-0.002726260577
-0.004733677024
-0.006892427201
-0.009189129494
-0.011609961383
-0.014139679716
-0.016761095897
-0.019454865724
-0.022199491719
-0.024971453973
-0.027745399231
-0.030494333992
-0.033189785871
-0.035801915706
-0.038299577925
-0.040650337019
-0.042820453182
-0.044774851150
-0.046477084395
-0.047889303436
-0.048972233438
-0.049685163094
-0.049985944360
-0.049831000831
-0.049175341070
-0.047972571798
-0.046174904250
-0.043733145527
-0.040596665972
-0.036713334987
-0.032029423160
-0.026489480664
-0.020036222668
-0.012610482343
-0.004151326769
0.005403541751
0.016116982202
0.028051173007
0.041266108116
0.055818409506
0.071761643644
0.089150036193
0.108047895386
0.128546292085
0.150784981014
0.174968803439
0.201351560910
0.230137456159
0.261233470884
0.293821509457
0.325933594716
0.354915235942
0.381546128688
0.425138353751
0.567199173011
0.531647682190
0.007767736912
0.008816162537
0.007007939597
0.006337826492
0.005631403142
0.004607493783
0.003259097045
0.001634856496
-0.000223017865
-0.002287559932
-0.004542070240
-0.006974228195
-0.009572235164
-0.012322858017
-0.015210661126
-0.018217850870
-0.021324389583
-0.024508203139
-0.027745399231
-0.031010458768
-0.034276384285
-0.037514800669
-0.040696010817
-0.043789013782
-0.046761495749
-0.049579804852
-0.052208919759
-0.054612419705
-0.056752461022
-0.058589762678
-0.060083601359
-0.061191815101
-0.061870813366
-0.062075590459
-0.061759738012
-0.060875450859
-0.059373519255
-0.057203299597
-0.054312656960
-0.050647877575
-0.046153560091
-0.040772513039
-0.034445712520
-0.027112405210
-0.018710466060
-0.009177114943
0.001549975597
0.013531339604
0.026824662173
0.041485072934
0.057568485587
0.075140053348
0.094289125940
0.115148895307
0.137911065866
0.162811285838
0.190040494722
0.219522278449
0.250528154074
0.281295556215
0.309444921555
0.335688958188
0.377428215616
0.508084564125
0.478959143162
0.009536743164
0.010849068570
0.008658454085
0.007917139596