# vtk DataFile Version 2.0
TITLE = "Quad data"
ASCII
DATASET STRUCTURED_GRID
DIMENSIONS 33 33 1
POINTS 1089 FLOAT
0.000000 0.000000 0.000000
0.000000 0.031250 0.000000
0.000000 0.062500 0.000000
0.000000 0.093750 0.000000
0.000000 0.125000 0.000000
0.000000 0.156250 0.000000
0.000000 0.187500 0.000000
0.000000 0.218750 0.000000
0.000000 0.250000 0.000000
0.000000 0.281250 0.000000
0.000000 0.312500 0.000000
0.000000 0.343750 0.000000
0.000000 0.375000 0.000000
0.000000 0.406250 0.000000
0.000000 0.437500 0.000000
0.000000 0.468750 0.000000
0.000000 0.500000 0.000000
0.000000 0.531250 0.000000
0.000000 0.562500 0.000000
0.000000 0.593750 0.000000
0.000000 0.625000 0.000000
0.000000 0.656250 0.000000
0.000000 0.687500 0.000000
0.000000 0.718750 0.000000
0.000000 0.750000 0.000000
0.000000 0.781250 0.000000
0.000000 0.812500 0.000000
0.000000 0.843750 0.000000
0.000000 0.875000 0.000000
0.000000 0.906250 0.000000
0.000000 0.937500 0.000000
0.000000 0.968750 0.000000
0.000000 1.000000 0.000000
0.031250 0.000000 0.000000
0.031250 0.031250 0.000000
0.031250 0.062500 0.000000
0.031250 0.093750 0.000000
0.031250 0.125000 0.000000
0.031250 0.156250 0.000000
0.031250 0.187500 0.000000
0.031250 0.218750 0.000000
0.031250 0.250000 0.000000
0.031250 0.281250 0.000000
0.031250 0.312500 0.000000
0.031250 0.343750 0.000000
0.031250 0.375000 0.000000
0.031250 0.406250 0.000000
0.031250 0.437500 0.000000
0.031250 0.468750 0.000000
0.031250 0.500000 0.000000
0.031250 0.531250 0.000000
0.031250 0.562500 0.000000
0.031250 0.593750 0.000000
0.031250 0.625000 0.000000
0.031250 0.656250 0.000000
0.031250 0.687500 0.000000
0.031250 0.718750 0.000000
0.031250 0.750000 0.000000
0.031250 0.781250 0.000000
0.031250 0.812500 0.000000
0.031250 0.843750 0.000000
0.031250 0.875000 0.000000
0.031250 0.906250 0.000000
0.031250 0.937500 0.000000
0.031250 0.968750 0.000000
0.031250 1.000000 0.000000
0.062500 0.000000 0.000000
0.062500 0.031250 0.000000
0.062500 0.062500 0.000000
0.062500 0.093750 0.000000
0.062500 0.125000 0.000000
0.062500 0.156250 0.000000
0.062500 0.187500 0.000000
0.062500 0.218750 0.000000
0.062500 0.250000 0.000000
0.062500 0.281250 0.000000
0.062500 0.312500 0.000000
0.062500 0.343750 0.000000
0.062500 0.375000 0.000000
0.062500 0.406250 0.000000
0.062500 0.437500 0.000000
0.062500 0.468750 0.000000
0.062500 0.500000 0.000000
0.062500 0.531250 0.000000
0.062500 0.562500 0.000000
0.062500 0.593750 0.000000
0.062500 0.625000 0.000000
0.062500 0.656250 0.000000
0.062500 0.687500 0.000000
0.062500 0.718750 0.000000
0.062500 0.750000 0.000000
0.062500 0.781250 0.000000
0.062500 0.812500 0.000000
0.062500 0.843750 0.000000
0.062500 0.875000 0.000000
0.062500 0.906250 0.000000
0.062500 0.937500 0.000000
0.062500 0.968750 0.000000
0.062500 1.000000 0.000000
0.093750 0.000000 0.000000
0.093750 0.031250 0.000000
0.093750 0.062500 0.000000
0.093750 0.093750 0.000000
0.093750 0.125000 0.000000
0.093750 0.156250 0.000000
0.093750 0.187500 0.000000
0.093750 0.218750 0.000000
0.093750 0.250000 0.000000
0.093750 0.281250 0.000000
0.093750 0.312500 0.000000
0.093750 0.343750 0.000000
0.093750 0.375000 0.000000
0.093750 0.406250 0.000000
0.093750 0.437500 0.000000
0.093750 0.468750 0.000000
0.093750 0.500000 0.000000
0.093750 0.531250 0.000000
0.093750 0.562500 0.000000
0.093750 0.593750 0.000000
0.093750 0.625000 0.000000
0.093750 0.656250 0.000000
0.093750 0.687500 0.000000
0.093750 0.718750 0.000000
0.093750 0.750000 0.000000
0.093750 0.781250 0.000000
0.093750 0.812500 0.000000
0.093750 0.843750 0.000000
0.093750 0.875000 0.000000
0.093750 0.906250 0.000000
0.093750 0.937500 0.000000
0.093750 0.968750 0.000000
0.093750 1.000000 0.000000
0.125000 0.000000 0.000000
0.125000 0.031250 0.000000
0.125000 0.062500 0.000000
0.125000 0.093750 0.000000
0.125000 0.125000 0.000000
0.125000 0.156250 0.000000
0.125000 0.187500 0.000000
0.125000 0.218750 0.000000
0.125000 0.250000 0.000000
0.125000 0.281250 0.000000
0.125000 0.312500 0.000000
0.125000 0.343750 0.000000
0.125000 0.375000 0.000000
0.125000 0.406250 0.000000
0.125000 0.437500 0.000000
0.125000 0.468750 0.000000
0.125000 0.500000 0.000000
0.125000 0.531250 0.000000
0.125000 0.562500 0.000000
0.125000 0.593750 0.000000
0.125000 0.625000 0.000000
0.125000 0.656250 0.000000
0.125000 0.687500 0.000000
0.125000 0.718750 0.000000
0.125000 0.750000 0.000000
0.125000 0.781250 0.000000
0.125000 0.812500 0.000000
0.125000 0.843750 0.000000
0.125000 0.875000 0.000000
0.125000 0.906250 0.000000
0.125000 0.937500 0.000000
0.125000 0.968750 0.000000
0.125000 1.000000 0.000000
0.156250 0.000000 0.000000
0.156250 0.031250 0.000000
0.156250 0.062500 0.000000
0.156250 0.093750 0.000000
0.156250 0.125000 0.000000
0.156250 0.156250 0.000000
0.156250 0.187500 0.000000
0.156250 0.218750 0.000000
0.156250 0.250000 0.000000
0.156250 0.281250 0.000000
0.156250 0.312500 0.000000
0.156250 0.343750 0.000000
0.156250 0.375000 0.000000
0.156250 0.406250 0.000000
0.156250 0.437500 0.000000
0.156250 0.468750 0.000000
0.156250 0.500000 0.000000
0.156250 0.531250 0.000000
0.156250 0.562500 0.000000
0.156250 0.593750 0.000000
0.156250 0.625000 0.000000
0.156250 0.656250 0.000000
0.156250 0.687500 0.000000
0.156250 0.718750 0.000000
0.156250 0.750000 0.000000
0.156250 0.781250 0.000000
0.156250 0.812500 0.000000
0.156250 0.843750 0.000000
0.156250 0.875000 0.000000
0.156250 0.906250 0.000000
0.156250 0.937500 0.000000
0.156250 0.968750 0.000000
0.156250 1.000000 0.000000
0.187500 0.000000 0.000000
0.187500 0.031250 0.000000
0.187500 0.062500 0.000000
0.187500 0.093750 0.000000
0.187500 0.125000 0.000000
0.187500 0.156250 0.000000
0.187500 0.187500 0.000000
0.187500 0.218750 0.000000
0.187500 0.250000 0.000000
0.187500 0.281250 0.000000
0.187500 0.312500 0.000000
0.187500 0.343750 0.000000
0.187500 0.375000 0.000000
0.187500 0.406250 0.000000
0.187500 0.437500 0.000000
0.187500 0.468750 0.000000
0.187500 0.500000 0.000000
0.187500 0.531250 0.000000
0.187500 0.562500 0.000000
0.187500 0.593750 0.000000
0.187500 0.625000 0.000000
0.187500 0.656250 0.000000
0.187500 0.687500 0.000000
0.187500 0.718750 0.000000
0.187500 0.750000 0.000000
0.187500 0.781250 0.000000
0.187500 0.812500 0.000000
0.187500 0.843750 0.000000
0.187500 0.875000 0.000000
0.187500 0.906250 0.000000
0.187500 0.937500 0.000000
0.187500 0.968750 0.000000
0.187500 1.000000 0.000000
0.218750 0.000000 0.000000
0.218750 0.031250 0.000000
0.218750 0.062500 0.000000
0.218750 0.093750 0.000000
0.218750 0.125000 0.000000
0.218750 0.156250 0.000000
0.218750 0.187500 0.000000
0.218750 0.218750 0.000000
0.218750 0.250000 0.000000
0.218750 0.281250 0.000000
0.218750 0.312500 0.000000
0.218750 0.343750 0.000000
0.218750 0.375000 0.000000
0.218750 0.406250 0.000000
0.218750 0.437500 0.000000
0.218750 0.468750 0.000000
0.218750 0.500000 0.000000
0.218750 0.531250 0.000000
0.218750 0.562500 0.000000
0.218750 0.593750 0.000000
0.218750 0.625000 0.000000
0.218750 0.656250 0.000000
0.218750 0.687500 0.000000
0.218750 0.718750 0.000000
0.218750 0.750000 0.000000
0.218750 0.781250 0.000000
0.218750 0.812500 0.000000
0.218750 0.843750 0.000000
0.218750 0.875000 0.000000
0.218750 0.906250 0.000000
0.218750 0.937500 0.000000
0.218750 0.968750 0.000000
0.218750 1.000000 0.000000
0.250000 0.000000 0.000000
0.250000 0.031250 0.000000
0.250000 0.062500 0.000000
0.250000 0.093750 0.000000
0.250000 0.125000 0.000000
0.250000 0.156250 0.000000
0.250000 0.187500 0.000000
0.250000 0.218750 0.000000
0.250000 0.250000 0.000000
0.250000 0.281250 0.000000
0.250000 0.312500 0.000000
0.250000 0.343750 0.000000
0.250000 0.375000 0.000000
0.250000 0.406250 0.000000
0.250000 0.437500 0.000000
0.250000 0.468750 0.000000
0.250000 0.500000 0.000000
0.250000 0.531250 0.000000
0.250000 0.562500 0.000000
0.250000 0.593750 0.000000
0.250000 0.625000 0.000000
0.250000 0.656250 0.000000
0.250000 0.687500 0.000000
0.250000 0.718750 0.000000
0.250000 0.750000 0.000000
0.250000 0.781250 0.000000
0.250000 0.812500 0.000000
0.250000 0.843750 0.000000
0.250000 0.875000 0.000000
0.250000 0.906250 0.000000
0.250000 0.937500 0.000000
0.250000 0.968750 0.000000
0.250000 1.000000 0.000000
0.281250 0.000000 0.000000
0.281250 0.031250 0.000000
0.281250 0.062500 0.000000
0.281250 0.093750 0.000000
0.281250 0.125000 0.000000
0.281250 0.156250 0.000000
0.281250 0.187500 0.000000
0.281250 0.218750 0.000000
0.281250 0.250000 0.000000
0.281250 0.281250 0.000000
0.281250 0.312500 0.000000
0.281250 0.343750 0.000000
0.281250 0.375000 0.000000
0.281250 0.406250 0.000000
0.281250 0.437500 0.000000
0.281250 0.468750 0.000000
0.281250 0.500000 0.000000
0.281250 0.531250 0.000000
0.281250 0.562500 0.000000
0.281250 0.593750 0.000000
0.281250 0.625000 0.000000
0.281250 0.656250 0.000000
0.281250 0.687500 0.000000
0.281250 0.718750 0.000000
0.281250 0.750000 0.000000
0.281250 0.781250 0.000000
0.281250 0.812500 0.000000
0.281250 0.843750 0.000000
0.281250 0.875000 0.000000
0.281250 0.906250 0.000000
0.281250 0.937500 0.000000
0.281250 0.968750 0.000000
0.281250 1.000000 0.000000
0.312500 0.000000 0.000000
0.312500 0.031250 0.000000
0.312500 0.062500 0.000000
0.312500 0.093750 0.000000
0.312500 0.125000 0.000000
0.312500 0.156250 0.000000
0.312500 0.187500 0.000000
0.312500 0.218750 0.000000
0.312500 0.250000 0.000000
0.312500 0.281250 0.000000
0.312500 0.312500 0.000000
0.312500 0.343750 0.000000
0.312500 0.375000 0.000000
0.312500 0.406250 0.000000
0.312500 0.437500 0.000000
0.312500 0.468750 0.000000
0.312500 0.500000 0.000000
0.312500 0.531250 0.000000
0.312500 0.562500 0.000000
0.312500 0.593750 0.000000
0.312500 0.625000 0.000000
0.312500 0.656250 0.000000
0.312500 0.687500 0.000000
0.312500 0.718750 0.000000
0.312500 0.750000 0.000000
0.312500 0.781250 0.000000
0.312500 0.812500 0.000000
0.312500 0.843750 0.000000
0.312500 0.875000 0.000000
0.312500 0.906250 0.000000
0.312500 0.937500 0.000000
0.312500 0.968750 0.000000
0.312500 1.000000 0.000000
0.343750 0.000000 0.000000
0.343750 0.031250 0.000000
0.343750 0.062500 0.000000
[...]
POINT_DATA 1089
SCALARS phi FLOAT 1
LOOKUP_TABLE default
0.000000000000
0.000000953674
0.000015258789
0.000077247620
0.000244140625
0.000596046448
0.001235961914
0.002289772034
0.003906250000
0.006257057190
0.009536743164
0.013962745667
0.019775390625
0.027237892151
0.036636352539
0.048279762268
0.062500000000
0.079651832581
0.100112915039
0.124283790588
0.152587890625
0.185471534729
0.223403930664
0.266877174377
0.316406250000
0.372529029846
0.435806274414
0.506821632385
0.586181640625
0.674515724182
0.772476196289
0.880738258362
1.000000000000
0.000000953674
0.822357303401
0.613400370599
0.376333930133
0.189869004514
0.078723125732
0.026755624364
0.007366309097
0.001532759006
0.000102980010
-0.000189943046
-0.000245885489
-0.000259533228
-0.000263770469
-0.000262335262
-0.000254837857
-0.000240480833
-0.000218516472
-0.000188320561
-0.000149441780
-0.000101663520
-0.000045084280
0.000019777352
0.000091843504
0.000169287870
0.000249269623
0.000327541787
0.000397840146
0.000450855755
0.000472336882
0.000439155466
0.000309997685
0.994141578674
0.000015258789
0.613400370599
0.457443280404
0.280552399914
0.141429996691
0.058502600676
0.019722070110
0.005242138315
0.000872348772
-0.000213276071
-0.000450234763
-0.000508338475
-0.000531493830
-0.000543030346
-0.000544625218
-0.000534953854
-0.000512473613
-0.000475791158
-0.000423759031
-0.000355569326
-0.000270873808
-0.000169938839
-0.000053845795
0.000075246314
0.000213749444
0.000356162917
0.000494384017
0.000616682608
0.000706100140
0.000737818086
0.000674630508
0.000459002029
0.976577758789
0.000077247620
0.376333930133
0.280552399914
0.171947520237
0.086534733908
0.035613543735
0.011785133214
0.002868349013
0.000154936924
-0.000542948057
-0.000718456263
-0.000781102868
-0.000817688937
-0.000841064093
-0.000850842507
-0.000844863661
-0.000820929586
-0.000777074313
-0.000711683168
-0.000623627997
-0.000512439345
-0.000378525415
-0.000223451227
-0.000050298165
0.000135865734
0.000327358192
0.000513025534
0.000677042463
0.000797192189
0.000842366202
0.000768960738
0.000516011906
0.947342872620
0.000244140625
0.189869004514
0.141429996691
0.086534733908
0.043358731448
0.017600164023
0.005520112406
0.000967769397
-0.000452856588
-0.000854841644
-0.000990461734
-0.001064733720
-0.001119665002
-0.001159897059
-0.001183399315
-0.001187297754
-0.001168804128
-0.001125418226
-0.001055071629
-0.000956300087
-0.000828459280
-0.000671994491
-0.000488778431
-0.000282537360
-0.000059393863
0.000171433769
0.000396719946
0.000598033041
0.000750157071
0.000819045213
0.000759297562
0.000511441925
0.906494140625
0.000596046448
0.078723125732
0.058502600676
0.035613543735
0.017600164023
0.006824599533
0.001731348214
-0.000235016792
-0.000899865329
-0.001139639818
-0.001265118173
-0.001359473769
-0.001437981944
-0.001500288653
-0.001543229064
-0.001563317113
-0.001557207707
-0.001521870790
-0.001454759707
-0.001354014566
-0.001218711782
-0.001049170305
-0.000847328051
-0.000617206307
-0.000365485157
-0.000102219175
0.000158271277
0.000396295049
0.000585441664
0.000690995816
0.000668217119
0.000460783695
0.854111671448
0.001235961914
0.026755624364
0.019722070110
0.011785133214
0.005520112406
0.001731348214
-0.000114434510
-0.000890948619
-0.001221424938
-0.001404071403
-0.001543230772
-0.001665052229
-0.001772190343
-0.001861770618
-0.001929862746
-0.001972422739
-0.001985549513
-0.001965657096
-0.001909664584
-0.001815223008
-0.001680988507
-0.001506951648
-0.001294834794
-0.001048571817
-0.000774887037
-0.000483992048
-0.000190418766
0.000085998903
0.000318999484
0.000474666893
0.000510213249
0.000372984558
0.790298461914
0.002289772034
0.007366309097
0.005242138315
0.002868349013
0.000967769397
-0.000235016792
-0.000890948619
-0.001245821142
-0.001474141365
-0.001658270713
-0.001825429673
-0.001980352359
-0.002120790431
-0.002242678434
-0.002341499258
-0.002412657747
-0.002451669938
-0.002454343394
-0.002416983118
-0.002336633904
-0.002211367410
-0.002040622792
-0.001825610726
-0.001569791706
-0.001279439892
-0.000964302917
-0.000638364402
-0.000320707228
-0.000036458804
0.000182228797
0.000295251467
0.000253809908
0.715180397034
0.003906250000
0.001532759006
0.000872348772
0.000154936924
-0.000452856588
-0.000899865329
-0.001221424938
-0.001474141365
-0.001697355637
-0.001908338863
-0.002110934879
-0.002303222982
-0.002481219925
-0.002640189787
-0.002775075095
-0.002880703283
-0.002951960816
-0.002983981097
-0.002972359514
-0.002913403419
-0.002804424383
-0.002644080327
-0.002432775450
-0.002173125881
-0.001870498161
-0.001533625419
-0.001175301424
-0.000813144413
-0.000470409351
-0.000176808982
0.000030716971
0.000107360377
0.628906250000
0.006257057190
0.000102980010
-0.000213276071
-0.000542948057
-0.000854841644
-0.001139639818
-0.001404071403
-0.001658270713
-0.001908338863
-0.002155421083
-0.002397405351
-0.002630468136
-0.002849882182
-0.003050376806
-0.003226337305
-0.003371970095
-0.003481474003
-0.003549230977
-0.003570023465
-0.003539284862
-0.003453389384
-0.003309987842
-0.003108395643
-0.002850038776
-0.002538962164
-0.002182402129
-0.001791420262
-0.001381589252
-0.000973711964
-0.000594544206
-0.000277481803
-0.000063169431
0.531647682190
0.009536743164
-0.000189943046
-0.000450234763
-0.000718456263
-0.000990461734
-0.001265118173
-0.001543230772
-0.001825429673
-0.002110934879
-0.002397405351
-0.002681247244
-0.002957929976
-0.003222206020
-0.003468273122
-0.003689921599
-0.003880687379
-0.004034019714
-0.004143469214
-0.004202901450
-0.004206741537
-0.004150255242
-0.004029872133
-0.003843555959
-0.003591226682
-0.003275237060
-0.002900904205
-0.002477092860
-0.002016842047
-0.001538020685
-0.001063991583
-0.000624259082
-0.000255076609
0.423599243164
0.013962745667
-0.000245885489
-0.000508338475
-0.000781102868
-0.001064733720
-0.001359473769
-0.001665052229
-0.001980352359
-0.002303222982
-0.002630468136
-0.002957929976
-0.003280598458
-0.003592726985
-0.003887954283
-0.004159436158
-0.004399990181
-0.004602256403
-0.004758877820
-0.004862704857
-0.004907028607
-0.004885847704
-0.004794173707
-0.004628379540
-0.004386594731
-0.004069149888
-0.003679070745
-0.003222619265
-0.002709875662
-0.002155351259
-0.001578618585
-0.001004943434
-0.000465905398
0.304978370667
0.019775390625
-0.000259533228
-0.000531493830
-0.000817688937
-0.001119665002
-0.001437981944
-0.001772190343
-0.002120790431
-0.002481219925
-0.002849882182
-0.003222206020
-0.003592726985
-0.003955184126
-0.004302629704
-0.004627551205
-0.004922006487
-0.005177774161
-0.005386522256
-0.005539998943
-0.005630249560
-0.005649864428
-0.005592262014
-0.005452011715
-0.005225199981
-0.004909842410
-0.004506342906
-0.004017998841
-0.003451548664
-0.002817755701
-0.002132019761
-0.001415007226
-0.000693291556
0.176025390625
0.027237892151
-0.000263770469
-0.000543030346
-0.000841064093
-0.001159897059
-0.001500288653
-0.001861770618
-0.002242678434
-0.002640189787
-0.003050376806
-0.003468273122
-0.003887954283
-0.004302629704
-0.004704744998
-0.005086094538
-0.005437945260
-0.005751173709
-0.006016419180
-0.006224256470
-0.006365392236
-0.006430889270
-0.006412423189
-0.006302575942
-0.006095170223
-0.005785648207
-0.005371496933
-0.004852721225
-0.004232363201
-0.003517065558
-0.002717674099
-0.001849874063
-0.000934854933
0.037003517151
0.036636352539
-0.000262335262
-0.000544625218
-0.000850842507
-0.001183399315
-0.001543229064
-0.001929862746
-0.002341499258
-0.002775075095
-0.003226337305
-0.003689921599
-0.004159436158
-0.004627551205
-0.005086094538
-0.005526153799
-0.005938186966
-0.006312143234
-0.006637597166
-0.006903899509
-0.007100348589
-0.007216386624
-0.007241825568
-0.007167107311
-0.006983603043
-0.006683956358
-0.006262474089
-0.005715567989
-0.005042249096
-0.004244675100
-0.003328749404
-0.002304769093
-0.001188117929
-0.111801147461
0.048279762268
-0.000254837857
-0.000534953854
-0.000844863661
-0.001187297754
-0.001563317113
-0.001972422739
-0.002412657747
-0.002880703283
-0.003371970095
-0.003880687379
-0.004399990181
-0.004922006487
-0.005437945260
-0.005938186966
-0.006412378575
-0.006849535479
-0.007238153236
-0.007566332571
-0.007821921539
-0.007992679256
-0.008066466144
-0.008031466053
-0.007876446076
-0.007591060073
-0.007166201940
-0.006594414290
-0.005870357450
-0.004991342331
-0.003957928926
-0.002774589929
-0.001450436411
-0.270079612732
0.062500000000
-0.000240480833
-0.000512473613
-0.000820929586
-0.001168804128
-0.001557207707
-0.001985549513
-0.002451669938
-0.002951960816
-0.003481474003
-0.004034019714
-0.004602256403
-0.005177774161
-0.005751173709
-0.006312143234
-0.006849535479
-0.007351447780
-0.007805308023
-0.008197969947
-0.008515821667
-0.008744911960
-0.008871099530
-0.008880231323
-0.008758356806
-0.008491985942
-0.008068399282
-0.007476018849
-0.006704848277
-0.005746989539
-0.004597241523
-0.003253782464
-0.001718934037
-0.437500000000
0.079651832581
-0.000218516472
-0.000475791158
-0.000777074313
-0.001125418226
-0.001521870790
-0.001965657096
-0.002454343394
-0.002983981097
-0.003549230977
-0.004143469214
-0.004758877820
-0.005386522256
-0.006016419180
-0.006637597166
-0.007238153236
-0.007805308023
-0.008325462574
-0.008784260053
-0.009166656150
-0.009457002690
-0.009639149904
-0.009696574046
-0.009612538437
-0.009370297551
-0.008953355276
-0.008345789646
-0.007532656851
-0.006500486682
-0.005237879271
-0.003736208704
-0.001990432739
-0.613707542419
0.100112915039
-0.000188320561
-0.000423759031
-0.000711683168
-0.001055071629
-0.001454759707
-0.001909664584
-0.002416983118
-0.002972359514
-0.003570023465
-0.004202901450
-0.004862704857
-0.005539998943
-0.006224256470
-0.006903899509
-0.007566332571
-0.008197969947
-0.008784260053
-0.009309709786
-0.009757912313
-0.010111582558
-0.010352605828
-0.010462106670
-0.010420547087
-0.010207865656
-0.009803671712
-0.009187511172
-0.008339222351
-0.007239400352
-0.005869986522
-0.004214994141
-0.002261372556
-0.798324584961
0.124283790588
-0.000149441780
-0.000355569326
-0.000623627997
-0.000956300087
-0.001354014566
-0.001815223008
-0.002336633904
-0.002913403419
-0.003539284862
-0.004206741537
-0.004907028607
-0.005630249560
-0.006365392236
-0.007100348589
-0.007821921539
-0.008515821667
-0.009166656150
-0.009757912313
-0.010271938561
-0.010689926290
-0.010991897809
-0.011156707311
-0.011162064729
-0.010984595771
-0.010599955461
-0.009983016790
-0.009108159797
-0.007949688519
-0.006482402115
-0.004682340532
-0.002527713040
-0.990950584412
0.152587890625
-0.000101663520
-0.000270873808
-0.000512439345
-0.000828459280
-0.001218711782
-0.001680988507
-0.002211367410
-0.002804424383
-0.003453389384
-0.004150255242
-0.004885847704
-0.005649864428
-0.006430889270
-0.007216386624
-0.007992679256
-0.008744911960
-0.009457002690
-0.010111582558
-0.010689926290
-0.011171875554
-0.011535759096
-0.011758316019
-0.011814631991
-0.011678102862
-0.011320446001
-0.010711786470
-0.009820852016
-0.008615316330
-0.007062331594
-0.005129285959
-0.002784806268
-1.191162109375
0.185471534729
-0.000045084280
-0.000169938839
-0.000378525415
-0.000671994491
-0.001049170305
-0.001506951648
-0.002040622792
-0.002644080327
-0.003309987842
-0.004029872133
-0.004794173707
-0.005592262014
-0.006412423189
-0.007241825568
-0.008066466144
-0.008871099530
-0.009639149904
-0.010352605828
-0.010991897809
-0.011535759096
-0.011961071684
-0.012242702078
-0.012353335389
-0.012263322193
-0.011940560568
-0.011350445807
-0.010455931928
-0.009217760277
-0.007594917968
-0.005545387005
-0.003027227414
-1.398512840271
0.223403930664
0.000019777352
-0.000053845795
-0.000223451227
-0.000488778431
-0.000847328051
-0.001294834794
-0.001825610726
-0.002432775450
-0.003108395643
-0.003843555959
-0.004628379540
-0.005452011715
-0.006302575942
-0.007167107311
-0.008031466053
-0.008880231323
-0.009696574046
-0.010462106670
-0.011156707311
-0.011758316019
-0.012242702078
-0.012583203643
-0.012750445260
-0.012712045526
-0.012432337287
-0.011872136806
-0.010988616447
-0.009735355968
-0.008062666085
-0.005918286044
-0.003248541788
-1.612533569336
0.266877174377
0.000091843504
0.000075246314
-0.000050298165
-0.000282537360
-0.000617206307
-0.001048571817
-0.001569791706
-0.002173125881
-0.002850038776
-0.003591226682
-0.004386594731
-0.005225199981
-0.006095170223
-0.006983603043
-0.007876446076
-0.008758356806
-0.009612538437
-0.010420547087
-0.011162064729
-0.011814631991
-0.012353335389
-0.012750445260
-0.012975004359
-0.012992373912
-0.012763755454
-0.012245724863
-0.011389841116
-0.010142426612
-0.008444654188
-0.006233106679
-0.003440975103
-1.832732200623
0.316406250000
0.000169287870
0.000213749444
0.000135865734
-0.000059393863
-0.000365485157
-0.000774887037
-0.001279439892
-0.001870498161
-0.002538962164
-0.003275237060
-0.004069149888
-0.004909842410
-0.005785648207
-0.006683956358
-0.007591060073
-0.008491985942
-0.009370297551
-0.010207865656
-0.010984595771
-0.011678102862
-0.012263322193
-0.012712045526
-0.012992373912
-0.013068083715
-0.012897913608
-0.012434800825
-0.011625129105
-0.010408102832
-0.008715431706
-0.006471586305
-0.003594931997
-2.058593750000
0.372529029846
0.000249269623
0.000356162917
0.000327358192
0.000171433769
-0.000102219175
-0.000483992048
-0.000964302917
-0.001533625419
-0.002182402129
-0.002900904205
-0.003679070745
-0.004506342906
-0.005371496933
-0.006262474089
-0.007166201940
-0.008068399282
-0.008953355276
-0.009803671712
-0.010599955461
-0.011320446001
-0.011940560568
-0.012432337287
-0.012763755454
-0.012897913608
-0.012792053310
-0.012396434994
-0.011653110469
-0.010494706409
-0.008843446264
-0.006610794406
-0.003698267199
-2.289580345154
0.435806274414
0.000327541787
0.000494384017
0.000513025534
0.000396719946
0.000158271277
-0.000190418766
-0.000638364402
-0.001175301424
-0.001791420262
-0.002477092860
-0.003222619265
-0.004017998841
-0.004852721225
-0.005715567989
-0.006594414290
-0.007476018849
-0.008345789646
-0.009187511172
-0.009983016790
-0.010711786470
-0.011350445807
-0.011872136806
-0.012245724863
-0.012434800825
-0.012396434994
-0.012079647778
-0.011423592157
-0.010355518879
-0.008788751578
-0.006621174768
-0.003735133220
-2.525131225586
0.506821632385
0.000397840146
0.000616682608
0.000677042463
0.000598033041
0.000396295049
0.000085998903
-0.000320707228
-0.000813144413
-0.001381589252
-0.002016842047
-0.002709875662
-0.003451548664
-0.004232363201
-0.005042249096
-0.005870357450
-0.006704848277
-0.007532656851
-0.008339222351
-0.009108159797
-0.009820852016
-0.010455931928
-0.010988616447
-0.011389841116
-0.011625129105
-0.011653110469
-0.011423592157
-0.010875079150
-0.009931693799
-0.008499600762
-0.006463440075
-0.003684057521
-2.764662742615
0.586181640625
0.000450855755
0.000706100140
0.000797192189
0.000750157071
0.000585441664
0.000318999484
-0.000036458804
-0.000470409351
-0.000973711964
-0.001538020685
-0.002155351259
-0.002817755701
-0.003517065558
-0.004244675100
-0.004991342331
-0.005746989539
-0.006500486682
-0.007239400352
-0.007949688519
-0.008615316330
-0.009217760277
-0.009735355968
-0.010142426612
-0.010408102832
-0.010494706409
-0.010355518879
-0.009931693799
-0.009148022202
-0.007907304140
-0.006083436969
-0.003514508532
-3.007568359375
0.674515724182
0.000472336882
0.000737818086
0.000842366202
0.000819045213
0.000690995816
0.000474666893
0.000182228797
-0.000176808982
-0.000594544206
-0.001063991583
-0.001578618585
-0.002132019761
-0.002717674099
-0.003328749404
-0.003957928926
-0.004597241523
-0.005237879271
-0.005869986522
-0.006482402115
-0.007062331594
-0.007594917968
-0.008062666085
-0.008444654188
-0.008715431706
-0.008843446264
-0.008788751578
-0.008499600762
-0.007907304140
-0.006918435667
-0.005403286875
-0.003180216795
-3.253218650818
0.772476196289
0.000439155466
0.000674630508
0.000768960738
0.000759297562
0.000668217119
0.000510213249
0.000295251467
0.000030716971
-0.000277481803
-0.000624259082
-0.001004943434
-0.001415007226
-0.001849874063
-0.002304769093
-0.002774589929
-0.003253782464
-0.003736208704
-0.004214994141
-0.004682340532
-0.005129285959
-0.005545387005
-0.005918286044
-0.006233106679
-0.006471586305
-0.006610794406
-0.006621174768
-0.006463440075
-0.006083436969
-0.005403286875
-0.004305554935
-0.002604751413
-3.500961303711
0.880738258362
0.000309997685
0.000459002029
0.000516011906
0.000511441925
0.000460783695
0.000372984558
0.000253809908
0.000107360377
-0.000063169431
-0.000255076609
-0.000465905398
-0.000693291556
-0.000934854933
-0.001188117929
-0.001450436411
-0.001718934037
-0.001990432739
-0.002261372556
-0.002527713040
-0.002784806268
-0.003027227414
-0.003248541788
-0.003440975103
-0.003594931997
-0.003698267199
-0.003735133220
-0.003684057521
-0.003514508532
-0.003180216795
-0.002604751413
-0.001646332918
-3.750121116638
1.000000000000
0.994141578674
0.976577758789
0.947342872620
0.906494140625
0.854111671448
0.790298461914
0.715180397034
0.628906250000
0.531647682190
0.423599243164
0.304978370667
0.176025390625
0.037003517151
-0.111801147461
-0.270079612732
-0.437500000000
-0.613707542419
-0.798324584961
-0.990950584412
-1.191162109375
-1.398512840271
-1.612533569336
-1.832732200623
-2.058593750000
-2.289580345154
-2.525131225586
-2.764662742615
-3.007568359375
-3.253218650818
-3.500961303711
-3.750121116638
-4.000000000000
