# vtk DataFile Version 2.0
TITLE = "Quad data"
ASCII
DATASET STRUCTURED_GRID
DIMENSIONS 17 17 1
POINTS 289 FLOAT
0.000000 0.000000 0.000000
0.000000 0.062500 0.000000
0.000000 0.125000 0.000000
0.000000 0.187500 0.000000
0.000000 0.250000 0.000000
0.000000 0.312500 0.000000
0.000000 0.375000 0.000000
0.000000 0.437500 0.000000
0.000000 0.500000 0.000000
0.000000 0.562500 0.000000
0.000000 0.625000 0.000000
0.000000 0.687500 0.000000
0.000000 0.750000 0.000000
0.000000 0.812500 0.000000
0.000000 0.875000 0.000000
0.000000 0.937500 0.000000
0.000000 1.000000 0.000000
0.062500 0.000000 0.000000
0.062500 0.062500 0.000000
0.062500 0.125000 0.000000
0.062500 0.187500 0.000000
0.062500 0.250000 0.000000
0.062500 0.312500 0.000000
0.062500 0.375000 0.000000
0.062500 0.437500 0.000000
0.062500 0.500000 0.000000
0.062500 0.562500 0.000000
0.062500 0.625000 0.000000
0.062500 0.687500 0.000000
0.062500 0.750000 0.000000
0.062500 0.812500 0.000000
0.062500 0.875000 0.000000
0.062500 0.937500 0.000000
0.062500 1.000000 0.000000
0.125000 0.000000 0.000000
0.125000 0.062500 0.000000
0.125000 0.125000 0.000000
0.125000 0.187500 0.000000
0.125000 0.250000 0.000000
0.125000 0.312500 0.000000
0.125000 0.375000 0.000000
0.125000 0.437500 0.000000
0.125000 0.500000 0.000000
0.125000 0.562500 0.000000
0.125000 0.625000 0.000000
0.125000 0.687500 0.000000
0.125000 0.750000 0.000000
0.125000 0.812500 0.000000
0.125000 0.875000 0.000000
0.125000 0.937500 0.000000
0.125000 1.000000 0.000000
0.187500 0.000000 0.000000
0.187500 0.062500 0.000000
0.187500 0.125000 0.000000
0.187500 0.187500 0.000000
0.187500 0.250000 0.000000
0.187500 0.312500 0.000000
0.187500 0.375000 0.000000
0.187500 0.437500 0.000000
0.187500 0.500000 0.000000
0.187500 0.562500 0.000000
0.187500 0.625000 0.000000
0.187500 0.687500 0.000000
0.187500 0.750000 0.000000
0.187500 0.812500 0.000000
0.187500 0.875000 0.000000
0.187500 0.937500 0.000000
0.187500 1.000000 0.000000
0.250000 0.000000 0.000000
0.250000 0.062500 0.000000
0.250000 0.125000 0.000000
0.250000 0.187500 0.000000
0.250000 0.250000 0.000000
0.250000 0.312500 0.000000
0.250000 0.375000 0.000000
0.250000 0.437500 0.000000
0.250000 0.500000 0.000000
0.250000 0.562500 0.000000
0.250000 0.625000 0.000000
0.250000 0.687500 0.000000
0.250000 0.750000 0.000000
0.250000 0.812500 0.000000
0.250000 0.875000 0.000000
0.250000 0.937500 0.000000
0.250000 1.000000 0.000000
0.312500 0.000000 0.000000
0.312500 0.062500 0.000000
0.312500 0.125000 0.000000
0.312500 0.187500 0.000000
0.312500 0.250000 0.000000
0.312500 0.312500 0.000000
0.312500 0.375000 0.000000
0.312500 0.437500 0.000000
0.312500 0.500000 0.000000
0.312500 0.562500 0.000000
0.312500 0.625000 0.000000
0.312500 0.687500 0.000000
0.312500 0.750000 0.000000
0.312500 0.812500 0.000000
0.312500 0.875000 0.000000
0.312500 0.937500 0.000000
0.312500 1.000000 0.000000
0.375000 0.000000 0.000000
0.375000 0.062500 0.000000
0.375000 0.125000 0.000000
0.375000 0.187500 0.000000
0.375000 0.250000 0.000000
0.375000 0.312500 0.000000
0.375000 0.375000 0.000000
0.375000 0.437500 0.000000
0.375000 0.500000 0.000000
0.375000 0.562500 0.000000
0.375000 0.625000 0.000000
0.375000 0.687500 0.000000
0.375000 0.750000 0.000000
0.375000 0.812500 0.000000
0.375000 0.875000 0.000000
0.375000 0.937500 0.000000
0.375000 1.000000 0.000000
0.437500 0.000000 0.000000
0.437500 0.062500 0.000000
0.437500 0.125000 0.000000
0.437500 0.187500 0.000000
0.437500 0.250000 0.000000
0.437500 0.312500 0.000000
0.437500 0.375000 0.000000
0.437500 0.437500 0.000000
0.437500 0.500000 0.000000
0.437500 0.562500 0.000000
0.437500 0.625000 0.000000
0.437500 0.687500 0.000000
0.437500 0.750000 0.000000
0.437500 0.812500 0.000000
0.437500 0.875000 0.000000
0.437500 0.937500 0.000000
0.437500 1.000000 0.000000
0.500000 0.000000 0.000000
0.500000 0.062500 0.000000
0.500000 0.125000 0.000000
0.500000 0.187500 0.000000
0.500000 0.250000 0.000000
0.500000 0.312500 0.000000
0.500000 0.375000 0.000000
0.500000 0.437500 0.000000
0.500000 0.500000 0.000000
0.500000 0.562500 0.000000
0.500000 0.625000 0.000000
0.500000 0.687500 0.000000
0.500000 0.750000 0.000000
0.500000 0.812500 0.000000
0.500000 0.875000 0.000000
0.500000 0.937500 0.000000
0.500000 1.000000 0.000000
0.562500 0.000000 0.000000
0.562500 0.062500 0.000000
0.562500 0.125000 0.000000
0.562500 0.187500 0.000000
0.562500 0.250000 0.000000
0.562500 0.312500 0.000000
0.562500 0.375000 0.000000
0.562500 0.437500 0.000000
0.562500 0.500000 0.000000
0.562500 0.562500 0.000000
0.562500 0.625000 0.000000
0.562500 0.687500 0.000000
0.562500 0.750000 0.000000
0.562500 0.812500 0.000000
0.562500 0.875000 0.000000
0.562500 0.937500 0.000000
0.562500 1.000000 0.000000
0.625000 0.000000 0.000000
0.625000 0.062500 0.000000
0.625000 0.125000 0.000000
0.625000 0.187500 0.000000
0.625000 0.250000 0.000000
0.625000 0.312500 0.000000
0.625000 0.375000 0.000000
0.625000 0.437500 0.000000
0.625000 0.500000 0.000000
0.625000 0.562500 0.000000
0.625000 0.625000 0.000000
0.625000 0.687500 0.000000
0.625000 0.750000 0.000000
0.625000 0.812500 0.000000
0.625000 0.875000 0.000000
0.625000 0.937500 0.000000
0.625000 1.000000 0.000000
0.687500 0.000000 0.000000
0.687500 0.062500 0.000000
0.687500 0.125000 0.000000
0.687500 0.187500 0.000000
0.687500 0.250000 0.000000
0.687500 0.312500 0.000000
0.687500 0.375000 0.000000
0.687500 0.437500 0.000000
0.687500 0.500000 0.000000
0.687500 0.562500 0.000000
0.687500 0.625000 0.000000
0.687500 0.687500 0.000000
0.687500 0.750000 0.000000
0.687500 0.812500 0.000000
0.687500 0.875000 0.000000
0.687500 0.937500 0.000000
0.687500 1.000000 0.000000
0.750000 0.000000 0.000000
0.750000 0.062500 0.000000
0.750000 0.125000 0.000000
0.750000 0.187500 0.000000
0.750000 0.250000 0.000000
0.750000 0.312500 0.000000
0.750000 0.375000 0.000000
0.750000 0.437500 0.000000
0.750000 0.500000 0.000000
0.750000 0.562500 0.000000
0.750000 0.625000 0.000000
0.750000 0.687500 0.000000
0.750000 0.750000 0.000000
0.750000 0.812500 0.000000
0.750000 0.875000 0.000000
0.750000 0.937500 0.000000
0.750000 1.000000 0.000000
0.812500 0.000000 0.000000
0.812500 0.062500 0.000000
0.812500 0.125000 0.000000
0.812500 0.187500 0.000000
0.812500 0.250000 0.000000
0.812500 0.312500 0.000000
0.812500 0.375000 0.000000
0.812500 0.437500 0.000000
0.812500 0.500000 0.000000
0.812500 0.562500 0.000000
0.812500 0.625000 0.000000
0.812500 0.687500 0.000000
0.812500 0.750000 0.000000
0.812500 0.812500 0.000000
0.812500 0.875000 0.000000
0.812500 0.937500 0.000000
0.812500 1.000000 0.000000
0.875000 0.000000 0.000000
0.875000 0.062500 0.000000
0.875000 0.125000 0.000000
0.875000 0.187500 0.000000
0.875000 0.250000 0.000000
0.875000 0.312500 0.000000
0.875000 0.375000 0.000000
0.875000 0.437500 0.000000
0.875000 0.500000 0.000000
0.875000 0.562500 0.000000
0.875000 0.625000 0.000000
0.875000 0.687500 0.000000
0.875000 0.750000 0.000000
0.875000 0.812500 0.000000
0.875000 0.875000 0.000000
0.875000 0.937500 0.000000
0.875000 1.000000 0.000000
0.937500 0.000000 0.000000
0.937500 0.062500 0.000000
0.937500 0.125000 0.000000
0.937500 0.187500 0.000000
0.937500 0.250000 0.000000
0.937500 0.312500 0.000000
0.937500 0.375000 0.000000
0.937500 0.437500 0.000000
0.937500 0.500000 0.000000
0.937500 0.562500 0.000000
0.937500 0.625000 0.000000
0.937500 0.687500 0.000000
0.937500 0.750000 0.000000
0.937500 0.812500 0.000000
0.937500 0.875000 0.000000
0.937500 0.937500 0.000000
0.937500 1.000000 0.000000
1.000000 0.000000 0.000000
1.000000 0.062500 0.000000
1.000000 0.125000 0.000000
1.000000 0.187500 0.000000
1.000000 0.250000 0.000000
1.000000 0.312500 0.000000
1.000000 0.375000 0.000000
1.000000 0.437500 0.000000
1.000000 0.500000 0.000000
1.000000 0.562500 0.000000
1.000000 0.625000 0.000000
1.000000 0.687500 0.000000
1.000000 0.750000 0.000000
1.000000 0.812500 0.000000
1.000000 0.875000 0.000000
1.000000 0.937500 0.000000
1.000000 1.000000 0.000000
POINT_DATA 289
SCALARS phi FLOAT 1
LOOKUP_TABLE default
-0.000000000000
0.004893227482
0.009941782678
0.015150596219
0.020524755250
0.026069508402
0.031790270912
0.037692629918
0.043782349911
0.050065378368
0.056547851557
0.063236100534
0.070136657324
0.077256261300
0.084601865766
0.092180644748
0.100000000000
0.000197100476
0.005090327958
0.010138883154
0.015347696694
0.020721855726
0.026266608878
0.031987371388
0.037889730394
0.043979450387
0.050262478844
0.056744952033
0.063433201010
0.070333757800
0.077453361776
0.084798966242
0.092377745224
0.100197100476
0.000565332643
0.005458560125
0.010507115321
0.015715928861
0.021090087893
0.026634841045
0.032355603555
0.038257962561
0.044347682554
0.050630711011
0.057113184200
0.063801433177
0.070701989967
0.077821593943
0.085167198409
0.092745977391
0.100565332643
0.001253280900
0.006146508382
0.011195063578
0.016403877119
0.021778036150
0.027322789302
0.033043551813
0.038945910819
0.045035630812
0.051318659268
0.057801132457
0.064489381434
0.071389938224
0.078509542200
0.085855146666
0.093433925649
0.101253280900
0.002538537451
0.007431764933
0.012480320129
0.017689133670
0.023063292701
0.028608045853
0.034328808364
0.040231167370
0.046320887363
0.052603915819
0.059086389008
0.065774637985
0.072675194775
0.079794798751
0.087140403217
0.094719182200
0.102538537451
0.004939712807
0.009832940289
0.014881495485
0.020090309026
0.025464468057
0.031009221209
0.036729983719
0.042632342725
0.048722062718
0.055005091175
0.061487564364
0.068175813341
0.075076370131
0.082195974107
0.089541578573
0.097120357555
0.104939712807
0.009425698958
0.014318926440
0.019367481636
0.024576295177
0.029950454209
0.035495207360
0.041215969871
0.047118328877
0.053208048870
0.059491077326
0.065973550515
0.072661799492
0.079562356282
0.086681960258
0.094027564725
0.101606343707
0.109425698958
0.017806624451
0.022699851933
0.027748407129
0.032957220669
0.038331379701
0.043876132853
0.049596895363
0.055499254369
0.061588974362
0.067872002819
0.074354476008
0.081042724985
0.087943281775
0.095062885751
0.102408490217
0.109987269199
0.117806624451
0.033464254621
0.038357482103
0.043406037299
0.048614850840
0.053989009872
0.059533763023
0.065254525534
0.071156884540
0.077246604533
0.083529632989
0.090012106178
0.096700355155
0.103600911945
0.110720515921
0.118066120388
0.125644899370
0.133464254621
0.062716558891
0.067609786373
0.072658341569
0.077867155109
0.083241314141
0.088786067293
0.094506829803
0.100409188809
0.106498908802
0.112781937259
0.119264410448
0.125952659425
0.132853216215
0.139972820191
0.147318424657
0.154897203639
0.162716558891
0.117367058087
0.122260285569
0.127308840765
0.132517654306
0.137891813338
0.143436566489
0.149157329000
0.155059688006
0.161149407999
0.167432436455
0.173914909644
0.180603158621
0.187503715411
0.194623319387
0.201968923854
0.209547702836
0.217367058087
0.219467632283
0.224360859765
0.229409414961
0.234618228502
0.239992387533
0.245537140685
0.251257903196
0.257160262202
0.263249982195
0.269533010651
0.276015483840
0.282703732817
0.289604289607
0.296723893583
0.304069498049
0.311648277032
0.319467632283
0.410216617276
0.415109844758
0.420158399954
0.425367213495
0.430741372526
0.436286125678
0.442006888189
0.447909247195
0.453998967188
0.460281995644
0.466764468833
0.473452717810
0.480353274600
0.487472878576
0.494818483042
0.502397262025
0.510216617276
0.766582637374
0.771475864856
0.776524420052
0.781733233592
0.787107392624
0.792652145776
0.798372908286
0.804275267292
0.810364987285
0.816648015742
0.823130488931
0.829818737908
0.836719294698
0.843838898674
0.851184503140
0.858763282122
0.866582637374
1.432362013787
1.437255241269
1.442303796465
1.447512610006
1.452886769037
1.458431522189
1.464152284699
1.470054643705
1.476144363698
1.482427392155
1.488909865344
1.495598114321
1.502498671111
1.509618275087
1.516963879553
1.524542658535
1.532362013787
2.676201642313
2.681094869795
2.686143424991
2.691352238531
2.696726397563
2.702271150715
2.707991913225
2.713894272231
2.719983992224
2.726267020681
2.732749493870
2.739437742847
2.746338299637
2.753457903613
2.760803508079
2.768382287061
2.776201642313
5.000000000000
5.004893227482
5.009941782678
5.015150596219
5.020524755250
5.026069508402
5.031790270912
5.037692629918
5.043782349911
5.050065378368
5.056547851557
5.063236100534
5.070136657324
5.077256261300
5.084601865766
5.092180644748
5.100000000000
