# vtk DataFile Version 2.0
TITLE = "Quad data"
ASCII
DATASET STRUCTURED_GRID
DIMENSIONS 65 65 1
POINTS 4225 FLOAT
0.000000 0.000000 0.000000
0.000000 0.015625 0.000000
0.000000 0.031250 0.000000
0.000000 0.046875 0.000000
0.000000 0.062500 0.000000
0.000000 0.078125 0.000000
0.000000 0.093750 0.000000
0.000000 0.109375 0.000000
0.000000 0.125000 0.000000
0.000000 0.140625 0.000000
0.000000 0.156250 0.000000
0.000000 0.171875 0.000000
0.000000 0.187500 0.000000
0.000000 0.203125 0.000000
0.000000 0.218750 0.000000
0.000000 0.234375 0.000000
0.000000 0.250000 0.000000
0.000000 0.265625 0.000000
0.000000 0.281250 0.000000
0.000000 0.296875 0.000000
0.000000 0.312500 0.000000
0.000000 0.328125 0.000000
0.000000 0.343750 0.000000
0.000000 0.359375 0.000000
0.000000 0.375000 0.000000
0.000000 0.390625 0.000000
0.000000 0.406250 0.000000
0.000000 0.421875 0.000000
0.000000 0.437500 0.000000
0.000000 0.453125 0.000000
0.000000 0.468750 0.000000
0.000000 0.484375 0.000000
0.000000 0.500000 0.000000
0.000000 0.515625 0.000000
0.000000 0.531250 0.000000
0.000000 0.546875 0.000000
0.000000 0.562500 0.000000
0.000000 0.578125 0.000000
0.000000 0.593750 0.000000
0.000000 0.609375 0.000000
0.000000 0.625000 0.000000
0.000000 0.640625 0.000000
0.000000 0.656250 0.000000
0.000000 0.671875 0.000000
0.000000 0.687500 0.000000
0.000000 0.703125 0.000000
0.000000 0.718750 0.000000
0.000000 0.734375 0.000000
0.000000 0.750000 0.000000
0.000000 0.765625 0.000000
0.000000 0.781250 0.000000
0.000000 0.796875 0.000000
0.000000 0.812500 0.000000
0.000000 0.828125 0.000000
0.000000 0.843750 0.000000
0.000000 0.859375 0.000000
0.000000 0.875000 0.000000
0.000000 0.890625 0.000000
0.000000 0.906250 0.000000
0.000000 0.921875 0.000000
0.000000 0.937500 0.000000
0.000000 0.953125 0.000000
0.000000 0.968750 0.000000
0.000000 0.984375 0.000000
0.000000 1.000000 0.000000
0.015625 0.000000 0.000000
0.015625 0.015625 0.000000
0.015625 0.031250 0.000000
0.015625 0.046875 0.000000
0.015625 0.062500 0.000000
0.015625 0.078125 0.000000
0.015625 0.093750 0.000000
0.015625 0.109375 0.000000
0.015625 0.125000 0.000000
0.015625 0.140625 0.000000
0.015625 0.156250 0.000000
0.015625 0.171875 0.000000
0.015625 0.187500 0.000000
0.015625 0.203125 0.000000
0.015625 0.218750 0.000000
0.015625 0.234375 0.000000
0.015625 0.250000 0.000000
0.015625 0.265625 0.000000
0.015625 0.281250 0.000000
0.015625 0.296875 0.000000
0.015625 0.312500 0.000000
0.015625 0.328125 0.000000
0.015625 0.343750 0.000000
0.015625 0.359375 0.000000
0.015625 0.375000 0.000000
0.015625 0.390625 0.000000
0.015625 0.406250 0.000000
0.015625 0.421875 0.000000
0.015625 0.437500 0.000000
0.015625 0.453125 0.000000
0.015625 0.468750 0.000000
0.015625 0.484375 0.000000
0.015625 0.500000 0.000000
0.015625 0.515625 0.000000
0.015625 0.531250 0.000000
0.015625 0.546875 0.000000
0.015625 0.562500 0.000000
0.015625 0.578125 0.000000
0.015625 0.593750 0.000000
0.015625 0.609375 0.000000
0.015625 0.625000 0.000000
0.015625 0.640625 0.000000
0.015625 0.656250 0.000000
0.015625 0.671875 0.000000
0.015625 0.687500 0.000000
0.015625 0.703125 0.000000
0.015625 0.718750 0.000000
0.015625 0.734375 0.000000
0.015625 0.750000 0.000000
0.015625 0.765625 0.000000
0.015625 0.781250 0.000000
0.015625 0.796875 0.000000
0.015625 0.812500 0.000000
0.015625 0.828125 0.000000
0.015625 0.843750 0.000000
0.015625 0.859375 0.000000
0.015625 0.875000 0.000000
0.015625 0.890625 0.000000
0.015625 0.906250 0.000000
0.015625 0.921875 0.000000
0.015625 0.937500 0.000000
0.015625 0.953125 0.000000
0.015625 0.968750 0.000000
0.015625 0.984375 0.000000
0.015625 1.000000 0.000000
0.031250 0.000000 0.000000
0.031250 0.015625 0.000000
0.031250 0.031250 0.000000
0.031250 0.046875 0.000000
0.031250 0.062500 0.000000
0.031250 0.078125 0.000000
0.031250 0.093750 0.000000
0.031250 0.109375 0.000000
0.031250 0.125000 0.000000
0.031250 0.140625 0.000000
0.031250 0.156250 0.000000
0.031250 0.171875 0.000000
0.031250 0.187500 0.000000
0.031250 0.203125 0.000000
0.031250 0.218750 0.000000
0.031250 0.234375 0.000000
0.031250 0.250000 0.000000
0.031250 0.265625 0.000000
0.031250 0.281250 0.000000
0.031250 0.296875 0.000000
0.031250 0.312500 0.000000
0.031250 0.328125 0.000000
0.031250 0.343750 0.000000
0.031250 0.359375 0.000000
0.031250 0.375000 0.000000
0.031250 0.390625 0.000000
0.031250 0.406250 0.000000
0.031250 0.421875 0.000000
0.031250 0.437500 0.000000
0.031250 0.453125 0.000000
0.031250 0.468750 0.000000
0.031250 0.484375 0.000000
0.031250 0.500000 0.000000
0.031250 0.515625 0.000000
0.031250 0.531250 0.000000
0.031250 0.546875 0.000000
0.031250 0.562500 0.000000
0.031250 0.578125 0.000000
0.031250 0.593750 0.000000
0.031250 0.609375 0.000000
0.031250 0.625000 0.000000
0.031250 0.640625 0.000000
0.031250 0.656250 0.000000
0.031250 0.671875 0.000000
0.031250 0.687500 0.000000
0.031250 0.703125 0.000000
0.031250 0.718750 0.000000
0.031250 0.734375 0.000000
0.031250 0.750000 0.000000
0.031250 0.765625 0.000000
0.031250 0.781250 0.000000
0.031250 0.796875 0.000000
0.031250 0.812500 0.000000
0.031250 0.828125 0.000000
0.031250 0.843750 0.000000
0.031250 0.859375 0.000000
0.031250 0.875000 0.000000
0.031250 0.890625 0.000000
0.031250 0.906250 0.000000
0.031250 0.921875 0.000000
0.031250 0.937500 0.000000
0.031250 0.953125 0.000000
0.031250 0.968750 0.000000
0.031250 0.984375 0.000000
0.031250 1.000000 0.000000
0.046875 0.000000 0.000000
0.046875 0.015625 0.000000
0.046875 0.031250 0.000000
0.046875 0.046875 0.000000
0.046875 0.062500 0.000000
0.046875 0.078125 0.000000
0.046875 0.093750 0.000000
0.046875 0.109375 0.000000
0.046875 0.125000 0.000000
0.046875 0.140625 0.000000
0.046875 0.156250 0.000000
0.046875 0.171875 0.000000
0.046875 0.187500 0.000000
0.046875 0.203125 0.000000
0.046875 0.218750 0.000000
0.046875 0.234375 0.000000
0.046875 0.250000 0.000000
0.046875 0.265625 0.000000
0.046875 0.281250 0.000000
0.046875 0.296875 0.000000
0.046875 0.312500 0.000000
0.046875 0.328125 0.000000
0.046875 0.343750 0.000000
0.046875 0.359375 0.000000
0.046875 0.375000 0.000000
0.046875 0.390625 0.000000
0.046875 0.406250 0.000000
0.046875 0.421875 0.000000
0.046875 0.437500 0.000000
0.046875 0.453125 0.000000
0.046875 0.468750 0.000000
0.046875 0.484375 0.000000
0.046875 0.500000 0.000000
0.046875 0.515625 0.000000
0.046875 0.531250 0.000000
0.046875 0.546875 0.000000
0.046875 0.562500 0.000000
0.046875 0.578125 0.000000
0.046875 0.593750 0.000000
0.046875 0.609375 0.000000
0.046875 0.625000 0.000000
0.046875 0.640625 0.000000
0.046875 0.656250 0.000000
0.046875 0.671875 0.000000
0.046875 0.687500 0.000000
0.046875 0.703125 0.000000
0.046875 0.718750 0.000000
0.046875 0.734375 0.000000
0.046875 0.750000 0.000000
0.046875 0.765625 0.000000
0.046875 0.781250 0.000000
0.046875 0.796875 0.000000
0.046875 0.812500 0.000000
0.046875 0.828125 0.000000
0.046875 0.843750 0.000000
0.046875 0.859375 0.000000
0.046875 0.875000 0.000000
0.046875 0.890625 0.000000
0.046875 0.906250 0.000000
0.046875 0.921875 0.000000
0.046875 0.937500 0.000000
0.046875 0.953125 0.000000
0.046875 0.968750 0.000000
0.046875 0.984375 0.000000
0.046875 1.000000 0.000000
0.062500 0.000000 0.000000
0.062500 0.015625 0.000000
0.062500 0.031250 0.000000
0.062500 0.046875 0.000000
0.062500 0.062500 0.000000
0.062500 0.078125 0.000000
0.062500 0.093750 0.000000
0.062500 0.109375 0.000000
0.062500 0.125000 0.000000
0.062500 0.140625 0.000000
0.062500 0.156250 0.000000
0.062500 0.171875 0.000000
0.062500 0.187500 0.000000
0.062500 0.203125 0.000000
0.062500 0.218750 0.000000
0.062500 0.234375 0.000000
0.062500 0.250000 0.000000
0.062500 0.265625 0.000000
0.062500 0.281250 0.000000
0.062500 0.296875 0.000000
0.062500 0.312500 0.000000
0.062500 0.328125 0.000000
0.062500 0.343750 0.000000
0.062500 0.359375 0.000000
0.062500 0.375000 0.000000
0.062500 0.390625 0.000000
0.062500 0.406250 0.000000
0.062500 0.421875 0.000000
0.062500 0.437500 0.000000
0.062500 0.453125 0.000000
0.062500 0.468750 0.000000
0.062500 0.484375 0.000000
0.062500 0.500000 0.000000
0.062500 0.515625 0.000000
0.062500 0.531250 0.000000
0.062500 0.546875 0.000000
0.062500 0.562500 0.000000
0.062500 0.578125 0.000000
0.062500 0.593750 0.000000
0.062500 0.609375 0.000000
0.062500 0.625000 0.000000
0.062500 0.640625 0.000000
0.062500 0.656250 0.000000
0.062500 0.671875 0.000000
0.062500 0.687500 0.000000
0.062500 0.703125 0.000000
0.062500 0.718750 0.000000
0.062500 0.734375 0.000000
0.062500 0.750000 0.000000
0.062500 0.765625 0.000000
0.062500 0.781250 0.000000
0.062500 0.796875 0.000000
0.062500 0.812500 0.000000
0.062500 0.828125 0.000000
0.062500 0.843750 0.000000
0.062500 0.859375 0.000000
0.062500 0.875000 0.000000
0.062500 0.890625 0.000000
0.062500 0.906250 0.000000
0.062500 0.921875 0.000000
0.062500 0.937500 0.000000
0.062500 0.953125 0.000000
0.062500 0.968750 0.000000
0.062500 0.984375 0.000000
0.062500 1.000000 0.000000
0.078125 0.000000 0.000000
0.078125 0.015625 0.000000
0.078125 0.031250 0.000000
0.078125 0.046875 0.000000
0.078125 0.062500 0.000000
0.078125 0.078125 0.000000
0.078125 0.093750 0.000000
0.078125 0.109375 0.000000
0.078125 0.125000 0.000000
0.078125 0.140625 0.000000
0.078125 0.156250 0.000000
0.078125 0.171875 0.000000
0.078125 0.187500 0.000000
0.078125 0.203125 0.000000
0.078125 0.218750 0.000000
0.078125 0.234375 0.000000
0.078125 0.250000 0.000000
0.078125 0.265625 0.000000
0.078125 0.281250 0.000000
0.078125 0.296875 0.000000
0.078125 0.312500 0.000000
0.078125 0.328125 0.000000
0.078125 0.343750 0.000000
0.078125 0.359375 0.000000
0.078125 0.375000 0.000000
0.078125 0.390625 0.000000
0.078125 0.406250 0.000000
0.078125 0.421875 0.000000
0.078125 0.437500 0.000000
0.078125 0.453125 0.000000
0.078125 0.468750 0.000000
0.078125 0.484375 0.000000
0.078125 0.500000 0.000000
0.078125 0.515625 0.000000
0.078125 0.531250 0.000000
0.078125 0.546875 0.000000
0.078125 0.562500 0.000000
0.078125 0.578125 0.000000
0.078125 0.593750 0.000000
0.078125 0.609375 0.000000
0.078125 0.625000 0.000000
[...]
POINT_DATA 4225
SCALARS phi FLOAT 1
LOOKUP_TABLE default
-0.000000000000
0.001209008793
0.002427499960
0.003655547871
0.004893227482
0.006140614334
0.007397784562
0.008664814899
0.009941782678
0.011228765839
0.012525842934
0.013833093131
0.015150596219
0.016478432611
0.017816683353
0.019165430125
0.020524755250
0.021894741694
0.023275473075
0.024667033666
0.026069508402
0.027482982884
0.028907543383
0.030343276849
0.031790270912
0.033248613890
0.034718394794
0.036199703333
0.037692629918
0.039197265672
0.040713702430
0.042242032749
0.043782349911
0.045334747931
0.046899321559
0.048476166290
0.050065378368
0.051667054790
0.053281293317
0.054908192473
0.056547851557
0.058200370647
0.059865850604
0.061544393083
0.063236100534
0.064941076211
0.066659424177
0.068391249314
0.070136657324
0.071895754738
0.073668648925
0.075455448093
0.077256261300
0.079071198460
0.080900370349
0.082743888611
0.084601865766
0.086474415216
0.088361651254
0.090263689067
0.092180644748
0.094112635299
0.096059778639
0.098022193614
0.100000000000
0.000038391571
0.002726939212
0.005418176416
0.008105621250
0.010786839359
0.013458884385
0.016118634364
0.018762936079
0.021388675945
0.023992819552
0.026572435989
0.029124713820
0.031646971910
0.034136666810
0.036591397600
0.039008908804
0.041387091770
0.043723984788
0.046017772205
0.048266782708
0.050469486971
0.052624494791
0.054730551881
0.056786536433
0.058791455574
0.060744441822
0.062644749652
0.064491752241
0.066284938492
0.068023910391
0.069708380764
0.071338171476
0.072913212118
0.074433539196
0.075899295849
0.077310732097
0.078668205610
0.079972182990
0.081223241525
0.082422071389
0.083569478238
0.084666386130
0.085713840712
0.086713012583
0.087665200756
0.088571836088
0.089434484601
0.090254850532
0.091034779010
0.091776258171
0.092481420578
0.093152543719
0.093792049373
0.094402501563
0.094986602706
0.095547187467
0.096087213492
0.096609747751
0.097117946126
0.097615021717
0.098104192193
0.098588583458
0.099071030333
0.099553599917
0.100038391571
0.000083275865
0.004298264312
0.008510361471
0.012706339433
0.016880241470
0.021025661986
0.025136034249
0.029204800879
0.033225515743
0.037191908180
0.041097925569
0.044937762545
0.048705881351
0.052397025870
0.056006230892
0.059528827640
0.062960446258
0.066297015834
0.069534762383
0.072670205201
0.075700151904
0.078621692480
0.081432192626
0.084129286645
0.086710870127
0.089175092651
0.091520350698
0.093745280968
0.095848754247
0.097829869975
0.099687951638
0.101422543065
0.103033405719
0.104520517037
0.105884069844
0.107124472854
0.108242352244
0.109238554280
0.110114148917
0.110870434312
0.111508942145
0.112031443624
0.112439956035
0.112736749666
0.112924354920
0.113005569419
0.112983464843
0.112861393286
0.112642992815
0.112332191952
0.111933212735
0.111450571956
0.110889080154
0.110253837806
0.109550228036
0.108783904890
0.107960775828
0.107086976278
0.106168832710
0.105212807898
0.104225416649
0.103213089356
0.102181939642
0.101137357996
0.100083275865
0.000135750920
0.005881509662
0.011620234439
0.017331443082
0.023005173859
0.028631266156
0.034199536349
0.039699919348
0.045122570610
0.050457939066
0.055696819623
0.060830391160
0.065850243849
0.070748398293
0.075517318204
0.080149917808
0.084639564911
0.088980080356
0.093165734514
0.097191241343
0.101051750527
0.104742838146
0.108260496305
0.111601122112
0.114761506369
0.117738822308
0.120530614681
0.123134789468
0.125549604461
0.127773660922
0.129805896498
0.131645579550
0.133292304994
0.134745991756
0.136006881866
0.137075541235
0.137952862063
0.138640066863
0.139138713991
0.139450704567
0.139578290652
0.139524084478
0.139291068529
0.138882606210
0.138302452836
0.137554766618
0.136644119302
0.135575506085
0.134354354384
0.132986531018
0.131478347288
0.129836561411
0.128068377676
0.126181441569
0.124183829962
0.122084035193
0.119890941428
0.117613791003
0.115262137263
0.112845778514
0.110374664735
0.107858764708
0.105307878608
0.102731392461
0.100135750920
0.000197100476
0.007482735958
0.014757657822
0.021994062475
0.029177794737
0.036294754419
0.043330999428
0.050272854921
0.057107004997
0.063820565644
0.070401141280
0.076836867686
0.083116443791
0.089229154228
0.095164884200
0.100914127854
0.106467991175
0.111818190263
0.116957045762
0.121877474142
0.126572976468
0.131037625273
0.135266050081
0.139253422103
0.142995438607
0.146488307383
0.149728731732
0.152713896331
0.155441454314
0.157909515840
0.160116638392
0.162061819013
0.163744488624
0.165164508534
0.166322169216
0.167218191355
0.167853729164
0.168230375876
0.168350171323
0.168215611422
0.167829659390
0.167195758412
0.166317845503
0.165200366209
0.163848289778
0.162267124384
0.160462931938
0.158442341980
0.156212564118
0.153781398393
0.151157242955
0.148349098315
0.145366567402
0.142219850540
0.138919734295
0.135477572956
0.131905261081
0.128215195095
0.124420221288
0.120533566821
0.116568749738
0.112539464644
0.108459445591
0.104342327218
0.100197100476
0.000268825373
0.009108381147
0.017933610562
0.026709356138
0.035417190675
0.044038960443
0.052556855704
0.060953500183
0.069212033661
0.077316182645
0.085250318128
0.092999501013
0.100549516420
0.107886898149
0.114998944519
0.121873726703
0.128500090587
0.134867653095
0.140966793867
0.146788643107
0.152325066394
0.157568647190
0.162512667733
0.167151088979
0.171478530187
0.175490248719
0.179182120555
0.182550621995
0.185592812945
0.188306322156
0.190689334715
0.192740582030
0.194459334513
0.195845397085
0.196899107607
0.197621338233
0.198013499685
0.198077548345
0.197815996029
0.197231922248
0.196328988693
0.195111455649
0.193584199961
0.191752734143
0.189623226156
0.187202519326
0.184498151831
0.181518375129
0.178272170639
0.174769263963
0.171020135844
0.167036029026
0.162828950110
0.158411665407
0.153797689700
0.149001266681
0.144037339707
0.138921511291
0.133669989670
0.128299520847
0.122827305247
0.117270900419
0.111648116661
0.105976928582
0.100268825373
0.000352680273
0.010764902999
0.021159061383
0.031492562459
0.041742653521
0.051887043642
0.061903965944
0.071772260145
0.081471451015
0.090981817840
0.100284452748
0.109361307458
0.118195228822
0.126769983966
0.135070275987
0.143081751222
0.150790999134
0.158185545795
0.165253841986
0.171985246838
0.178370007936
0.184399238772
0.190064894362
0.195359745813
0.200277354581
0.204812047082
0.208958890277
0.212713668795
0.216072864076
0.219033635979
0.221593807202
0.223751850841
0.225506881286
0.226858648649
0.227807536816
0.228354565141
0.228501393762
0.228250332435
0.227604352704
0.226567103182
0.225142927627
0.223336885453
0.221154774229
0.218603153662
0.215689370505
0.212421583750
0.208808789419
0.204860844198
0.200588487109
0.196003358350
0.191118014397
0.185945938374
0.180501544703
0.174800176924
0.168858097592
0.162692469057
0.156321323978
0.149763524392
0.143038708443
0.136167224317
0.129170052128
0.122068716734
0.114885198343
0.107641860298
0.100352680273
0.000450716584
0.012458975304
0.024445186303
0.036359180722
0.048173819855
0.059862597831
0.071399708079
0.082760127836
0.093919697414
0.104855190536
0.115544373725
0.125966053966
0.136100114702
0.145927540690
0.155430432527
0.164592011840
0.173396618170
0.181829698645
0.189877791546
0.197528504817
0.204770490604
0.211593416810
0.217987936653
0.223945657142
0.229459107315
0.234521707054
0.239127737182
0.243272311508
0.246951351405
0.250161563407
0.252900420281
0.255166145900
0.256957704208
0.258274792463
0.259117838874
0.259488004679
0.259387190605
0.258818047606
0.257783991678
0.256289222454
0.254338745253
0.251938396123
0.249094869367
0.245815746981
0.242109529319
0.237985666248
0.233454588000
0.228527734820
0.223217584490
0.217537676711
0.211502633311
0.205128173158
0.198431120666
0.191429406717
0.184142060847
0.176589193569
0.168791967758
0.160772558261
0.152554099190
0.144160619028
0.135616964767
0.126948717958
0.118182107867
0.109343937889
0.100450716584
0.000565332643
0.014197625523
0.027803547234
0.041325156512
0.054730850308
0.067989823437
0.081072145113
0.093948850821
0.106592026078
0.118974879659
0.131071804808
0.142858427785
0.154311643769
0.165409640610
0.176131911226
0.186459255642
0.196373773799
0.205858850324
0.214899132475
0.223480502481
0.231590045483
0.239216014237
0.246347791694
0.252975852517
0.259091724517
0.264687950940
0.269758054423
0.274296503386
0.278298681525
0.281760860989
0.284680179731
0.287054623441
0.288883012374
0.290164993292
0.290901036657
0.291092439125
0.290741331272
0.289850690445
0.288424358484
0.286467064006
0.283984448846
0.280983098151
0.277470573532
0.273455448608
0.268947346173
0.263956976127
0.258496173258
0.252577933852
0.246216450063
0.239427140897
0.232226678616
0.224633009333
0.216665366530
0.208344276241
0.199691552675
0.190730283109
0.181484801039
0.171980646826
0.162244515439
0.152304191531
0.142188472920
0.131927084690
0.121550587335
0.111090293443
0.100565332643
0.000699332392
0.015988348888
0.031246242765
0.046407050334
0.061434604796
0.076293704690
0.090950203126
0.105371110076
0.119524683028
0.133380504598
0.146909546206
0.160084217476
0.172878401573
0.185267477045
0.197228327084
0.208739337302
0.219780383274
0.230332809177
0.240379398903
0.249904341023
0.258893188973
0.267332817779
0.275211378607
0.282518252331
0.289244003256
0.295380334031
0.300920042716
0.305856982846
0.310186027266
0.313903036384
0.317004831407
0.319489173017
0.321354745834
0.322601148930
0.323228892533
0.323239400981
0.322635021858
0.321419041179
0.319595704341
0.317170242508
0.314148903939
0.310538989725
0.306348893241
0.301588142569
0.296267445006
0.290398732708
0.283995208410
0.277071390070
0.269643153233
0.261727769803
0.253343941887
0.244511829324
0.235253069480
0.225590787927
0.215549598652
0.205155592543
0.194436313079
0.183420718388
0.172139129227
0.160623162937
0.148905654064
0.137020563079
0.125002875234
0.112888503702
0.100699332392
0.000855993970
0.017839217892
0.034786049625
0.051622200113
0.068306817619
0.084800192091
0.101063858233
0.117060709836
0.132755098749
0.148112917758
0.163101667046
0.177690504272
0.191850278735
0.205553550421
0.218774595019
0.231489396183
0.243675626479
0.255312618521
0.266381327870
0.276864289254
0.286745567671
0.296010705870
0.304646669662
0.312641792412
0.319985719996
0.326669357406
0.332684818054
0.338025376760
0.342685427260
0.346660444986
0.349946955726
0.352542510684
0.354445668337
0.355655983360
0.356174002796
0.356001269522
0.355140332954
0.353594766815
0.351369193687
0.348469315940
0.344901952531
0.340675081037
0.335797884182
0.330280799997
0.324135574642
0.317375316813
0.310014552543
0.302069279106
0.293557016664
0.284496856174
0.274909502067
0.264817308109
0.254244304877
0.243216217273
0.231760470575
0.219906183598
0.207684147743
0.195126790931
0.182268125758
0.169143681626
0.155790421095
0.142246641155
0.128551860513
0.114746707441
0.100855993970
0.001039149911
0.019758996516
0.038436565737
0.056988886020
0.075370277632
0.093536393001
0.111444334063
0.129052779467
0.146322092531
0.163214409752
0.179693709996
0.195725864790
0.211278670517
0.226321863584
0.240827119910
0.254768040247
0.268120123011
0.280860726355
0.292969021282
0.304425937576
0.315214104312
0.325317786656
0.334722820563
0.343416546930
0.351387746607
0.358626577617
0.365124515737
0.370874299560
0.375869880940
0.380106381667
0.383580057046
0.386288266953
0.388229454793
0.389403134674
0.389809886988
0.389451362450
0.388330294535
0.386450520126
0.383817008057
0.380435895111
0.376314528908
0.371461516988
0.365886781261
0.359601616885
0.352618754482
0.344952424488
0.336618422327
0.327634172951
0.318018793221
0.307793150484
0.296979915627
0.285603608874
0.273690636494
0.261269316679
0.248369892831
0.235024532650
0.221267311529
0.207134179024
0.192662907439
0.177893021898
0.162865711697
0.147623723055
0.132211233665
0.116673724461
0.101039149911
0.001253280900
0.021757264833
0.042212361938
0.062526504029
0.082649018425
0.102530773867
0.122124312301
0.141383989274
0.160266091055
0.178728928668
0.196732909361
0.214240586334
0.231216687882
0.247628127347
0.263443995549
0.278635537508
0.293176115413
0.307041159845
0.320208111313
0.332656354143
0.344367144692
0.355323535835
0.365510299526
0.374913849170
0.383522163385
0.391324712624
0.398312389985
0.404477447376
0.409813438096
0.414315166711
0.417978646995
0.420801068532
0.422780772478
0.423917236797
0.424211071192
0.423664021774
0.422278985434
0.420060033671
0.417012445573
0.413142749451
0.408458772505
0.402969697783
0.396686127513
0.389620151764
0.381785421265
0.373197223025
0.363872557317
0.353830214394
0.343090849246
0.331677052543
0.319613415852
0.306926589132
0.293645328479
0.279800532083
0.265425262395
0.250554752597
0.235226395606
0.219479714041
0.203356309835
0.186899792488
0.170155685285
0.153171309109
0.135995643768
0.118679183271
0.101253280900
0.001503625390
0.023844558256
0.046129147620
0.068255753448
0.090168523078
0.111813377852
0.133138159300
0.154092782746
0.174629363373
0.194702315259
0.214268424301
0.233286896236
0.251719381307
0.269529977359
0.286685213388
0.303154015718
0.318907659079
0.333919704939
0.348165929431
0.361624243198
0.374274605397
0.386098934045
0.397081014725
0.407206409584
0.416462368382
0.424837743201
0.432322908280
0.438909686270
0.444591282034
0.449362224978
0.453218320731
0.456156612834
0.458175354951
0.459273993979
0.459453164249
0.458714692913
0.457061616435
0.454498207960
0.451030015196
0.446663908308
0.441408137126
0.435272396877
0.428267901437
0.420407462980
0.411705576712
0.402178509246
0.391844388975
0.380723296709
0.368837354621
0.356210811493
0.342870122072
0.328844018315
0.314163570191
0.298862233721
0.282975883935
0.266542830498
0.249603813892
0.232201980181
0.214382832680
0.196194159053
0.177685932758
0.158910188012
0.139920867792
0.120773662401
0.101503625390
0.001796307750
0.026032525244
0.050203954831
0.074198843050
0.097955947847
0.121416061718
0.144522172131
0.167219628128
0.189456274757
0.211182556232
0.232351589069
0.252919206876
0.272843978744
0.292087203469
0.310612882049
0.328387671022
0.345380819330
0.361564091398
0.376911679139
0.391400105499
0.405008122096
0.417716603374
0.429508439548
0.440368430461
0.450283182297
0.459241008931
0.467231839495
0.474247133575
0.480279805267
0.485324157138
0.489375824983
0.492431734082
0.494490067510
0.495550246882
0.495612925776
0.494679995897
0.492754605912
0.489841192723
0.485945524778
0.481074756877
0.475237495757
0.468443875566
0.460705642188
0.452036245162
0.442450935808
0.431966869956
0.420603213501
0.408381248851
0.395324480130
0.381458734868
0.366812259758
0.351415807950
0.335302715251
0.318508962559
0.301073221854
0.283036883116
0.264444059616
0.245341569212
0.225778889491
0.205808084850
0.185483703954
0.164862646339
0.144003997296
0.122968849581
0.101796307750
0.002138488096
0.028334107349
0.054455345166
0.080379720320
0.106040369150
0.131372756023
0.156314847724
0.180807292560
0.204793562298
0.228220058135
0.251036182421
0.273194378238
0.294650139297
0.315361992852
0.335291458557
0.354402986303
0.372663876153
0.390044183491
0.406516612458
0.422056400661
0.436641198024
0.450250942473
0.462867734997
0.474475716413
0.485060947984
0.494611297809
0.503116334714
0.510567231167
0.516956676529
0.522278801773
0.526529116602
0.529704459729
0.531802962886
0.532824028991
0.532768324701
0.531637787437
0.529435646803
0.526166460145
0.521836161842
0.516452125750
0.510023240032
0.502559993447
0.494074571956
0.484580964345
0.474095075321
0.462634844373
0.450220368458
0.436874026381
0.422620602523
0.407487407410
0.391504392392
0.374704255615
0.357122536290
0.338797694199
0.319771171369
0.300087432799
0.279793983255
0.258941357254
0.237583079576
0.215775593895
0.193578157484
0.171052700302
0.148263647227
0.125277722848
0.102138488096
0.002538537451
0.030763745749
0.058903643955
0.086824328414
0.114453058346
0.141719752898
0.168557179019
0.194901142347
0.220690635391
0.245867944608
0.270378718594
0.294172000012
0.317200224272
0.339419188227
0.360787992344
0.381268959930
0.400827537022
0.419432176521
0.437054210081
0.453667711125
0.469249352189
0.483778259621
0.497235868413
0.509605779742
0.520873623556
0.531026928284
0.540054999533
0.547948809396
0.554700897783
0.560305286952
0.564757410238
0.568054055768
0.570193325774
0.571174611919
0.570998586914
0.569667212479
0.567183763595
0.563552868760
0.558780565845
0.552874372929
0.545843373319
0.537698313770
0.528451714711
0.518117991072
0.506713582089
0.494257088227
0.480769413128
0.466273908263
0.450796517716
0.434365920316
0.417013666112
0.398774303980
0.379685497020
0.359788122244
0.339126350989
0.317747706485
0.295703095012
0.273046807242
0.249836486511
0.226133061077
0.202000637734
0.177506354619
0.152720191535
0.127714757897
0.102538537451
0.003006242532
0.033337618925
0.063571206627
0.093560895777
0.123227789174
0.152496025996
0.181292982414
0.209549473221
0.237199904583
0.264182380026
0.290438762455
0.315914695432
0.340559587372
0.364326562547
0.387172383010
0.409057345594
0.429945158168
0.449802799259
0.468600365020
0.486310907335
0.502910266661
0.518376902927
0.532691727584
0.545837939587
0.557800867855
0.568567822447
0.578127956438
0.586472140222
0.593592849721
0.599484069751
0.604141213559
0.607561059379
0.609741704607
0.610682538045
0.610384230487
0.608848743711
0.606079357808
0.602080716579
0.596858890554
0.590421457014
0.582777596192
0.573938202613
0.563916010345
0.552725730665
0.540384200417
0.526910539093
0.512326312372
0.496655699606
0.479925662452
0.462166111580
0.443410068121
0.423693816291
0.403057043399
0.381542963267
0.359198418989
0.336073960864
0.312223895351
0.287706301004
0.262583007469
0.236919533971
0.210784984019
0.184251893600
0.157396030652
0.130296166391
0.103006242532
0.003553045168
0.036073916767
0.068482722698
0.100620263861
0.132401183134
0.163743587664
0.194569261176
0.224803874867
0.254377142558
0.283222922831
0.311279271615
0.338488449177
0.364796885917
0.390155111608
0.414517652887
0.437842903849
0.460092974573
0.481233522244
0.501233569398
0.520065313544
0.537703932152
0.554127386688
0.569316229068
0.583253413567
0.595924116899
0.607315568875
0.617416895733
0.626218977956
0.633714324116
0.639896962038
0.644762348338
0.648307297175
0.650529928862
0.651429638760
0.651007086750
0.649264207338
0.646204240336
0.641831781822
0.636152854965
0.629175000052
0.620907382896
0.611360920550
0.600548423058
0.588484749678
0.575186977791
0.560674582375
0.544969623663
0.528096940261
0.510084344695
0.490962818022
0.470766699841
0.449533869705
0.427305915708
0.404128285732
0.380050416697
0.355125837014
0.329412237403
0.302971505290
0.275869718159
0.248177091495
0.219967877339
0.191320210033
0.162315896332
0.133040170580
0.103553045168
0.004192322217
0.038993157158
0.073665563507
0.108036259025
0.142013098678
0.175507888873
0.208436609943
0.240719634333
0.272281881376
0.303052912127
0.332966968538
0.361962961782
0.389984415005
0.416979365986
0.442900235341
0.467703665910
0.491350338847
0.513804771748
0.535035103911
0.555012873480
0.573712790895
0.591112512707
0.607192419385
0.621935400442
0.635326649725
0.647353473466
0.658005113249
0.667272585799
0.675148541174
0.681627140668
0.686703955509
0.690375887181
0.692641110006
0.693499036442
0.692950305345
0.690996793279
0.687641648803
0.682889349459
0.676745781022
0.669218338385
0.660316047221
0.650049705368
0.638432042617
0.625477897309
0.611204407883
0.595631217150
0.578780686782
0.560678119094
0.541351982868
0.520834139551
0.499160065789
0.476369067896
0.452504483504
0.427613865307
0.401749141605
0.374966748107
0.347327725395
0.318897776423
0.289747278579
0.259951245047
0.229589230663
0.198745177999
0.167507200096
0.135967320311
0.104192322217
0.004939712807
0.042118552041
0.079150180710
0.115846115452
0.152107070791
0.187838268065
0.222949665973
0.257356183430
0.290977850439
0.323739891357
0.355572745819
0.386412033157
0.416198466599
0.444877723716
0.472400279719
0.498721210098
0.523799968948
0.547600149017
0.570089229217
0.591238314867
0.611021875574
0.629417485146
0.646405567497
0.661969152065
0.676093641796
0.688766596364
0.699977532908
0.709717746206
0.717980149892