# vtk DataFile Version 2.0
TITLE = "Quad data"
ASCII
DATASET STRUCTURED_GRID
DIMENSIONS 17 17 1
POINTS 289 FLOAT
0.000000 0.000000 0.000000
0.000000 0.062500 0.000000
0.000000 0.125000 0.000000
0.000000 0.187500 0.000000
0.000000 0.250000 0.000000
0.000000 0.312500 0.000000
0.000000 0.375000 0.000000
0.000000 0.437500 0.000000
0.000000 0.500000 0.000000
0.000000 0.562500 0.000000
0.000000 0.625000 0.000000
0.000000 0.687500 0.000000
0.000000 0.750000 0.000000
0.000000 0.812500 0.000000
0.000000 0.875000 0.000000
0.000000 0.937500 0.000000
0.000000 1.000000 0.000000
0.062500 0.000000 0.000000
0.062500 0.062500 0.000000
0.062500 0.125000 0.000000
0.062500 0.187500 0.000000
0.062500 0.250000 0.000000
0.062500 0.312500 0.000000
0.062500 0.375000 0.000000
0.062500 0.437500 0.000000
0.062500 0.500000 0.000000
0.062500 0.562500 0.000000
0.062500 0.625000 0.000000
0.062500 0.687500 0.000000
0.062500 0.750000 0.000000
0.062500 0.812500 0.000000
0.062500 0.875000 0.000000
0.062500 0.937500 0.000000
0.062500 1.000000 0.000000
0.125000 0.000000 0.000000
0.125000 0.062500 0.000000
0.125000 0.125000 0.000000
0.125000 0.187500 0.000000
0.125000 0.250000 0.000000
0.125000 0.312500 0.000000
0.125000 0.375000 0.000000
0.125000 0.437500 0.000000
0.125000 0.500000 0.000000
0.125000 0.562500 0.000000
0.125000 0.625000 0.000000
0.125000 0.687500 0.000000
0.125000 0.750000 0.000000
0.125000 0.812500 0.000000
0.125000 0.875000 0.000000
0.125000 0.937500 0.000000
0.125000 1.000000 0.000000
0.187500 0.000000 0.000000
0.187500 0.062500 0.000000
0.187500 0.125000 0.000000
0.187500 0.187500 0.000000
0.187500 0.250000 0.000000
0.187500 0.312500 0.000000
0.187500 0.375000 0.000000
0.187500 0.437500 0.000000
0.187500 0.500000 0.000000
0.187500 0.562500 0.000000
0.187500 0.625000 0.000000
0.187500 0.687500 0.000000
0.187500 0.750000 0.000000
0.187500 0.812500 0.000000
0.187500 0.875000 0.000000
0.187500 0.937500 0.000000
0.187500 1.000000 0.000000
0.250000 0.000000 0.000000
0.250000 0.062500 0.000000
0.250000 0.125000 0.000000
0.250000 0.187500 0.000000
0.250000 0.250000 0.000000
0.250000 0.312500 0.000000
0.250000 0.375000 0.000000
0.250000 0.437500 0.000000
0.250000 0.500000 0.000000
0.250000 0.562500 0.000000
0.250000 0.625000 0.000000
0.250000 0.687500 0.000000
0.250000 0.750000 0.000000
0.250000 0.812500 0.000000
0.250000 0.875000 0.000000
0.250000 0.937500 0.000000
0.250000 1.000000 0.000000
0.312500 0.000000 0.000000
0.312500 0.062500 0.000000
0.312500 0.125000 0.000000
0.312500 0.187500 0.000000
0.312500 0.250000 0.000000
0.312500 0.312500 0.000000
0.312500 0.375000 0.000000
0.312500 0.437500 0.000000
0.312500 0.500000 0.000000
0.312500 0.562500 0.000000
0.312500 0.625000 0.000000
0.312500 0.687500 0.000000
0.312500 0.750000 0.000000
0.312500 0.812500 0.000000
0.312500 0.875000 0.000000
0.312500 0.937500 0.000000
0.312500 1.000000 0.000000
0.375000 0.000000 0.000000
0.375000 0.062500 0.000000
0.375000 0.125000 0.000000
0.375000 0.187500 0.000000
0.375000 0.250000 0.000000
0.375000 0.312500 0.000000
0.375000 0.375000 0.000000
0.375000 0.437500 0.000000
0.375000 0.500000 0.000000
0.375000 0.562500 0.000000
0.375000 0.625000 0.000000
0.375000 0.687500 0.000000
0.375000 0.750000 0.000000
0.375000 0.812500 0.000000
0.375000 0.875000 0.000000
0.375000 0.937500 0.000000
0.375000 1.000000 0.000000
0.437500 0.000000 0.000000
0.437500 0.062500 0.000000
0.437500 0.125000 0.000000
0.437500 0.187500 0.000000
0.437500 0.250000 0.000000
0.437500 0.312500 0.000000
0.437500 0.375000 0.000000
0.437500 0.437500 0.000000
0.437500 0.500000 0.000000
0.437500 0.562500 0.000000
0.437500 0.625000 0.000000
0.437500 0.687500 0.000000
0.437500 0.750000 0.000000
0.437500 0.812500 0.000000
0.437500 0.875000 0.000000
0.437500 0.937500 0.000000
0.437500 1.000000 0.000000
0.500000 0.000000 0.000000
0.500000 0.062500 0.000000
0.500000 0.125000 0.000000
0.500000 0.187500 0.000000
0.500000 0.250000 0.000000
0.500000 0.312500 0.000000
0.500000 0.375000 0.000000
0.500000 0.437500 0.000000
0.500000 0.500000 0.000000
0.500000 0.562500 0.000000
0.500000 0.625000 0.000000
0.500000 0.687500 0.000000
0.500000 0.750000 0.000000
0.500000 0.812500 0.000000
0.500000 0.875000 0.000000
0.500000 0.937500 0.000000
0.500000 1.000000 0.000000
0.562500 0.000000 0.000000
0.562500 0.062500 0.000000
0.562500 0.125000 0.000000
0.562500 0.187500 0.000000
0.562500 0.250000 0.000000
0.562500 0.312500 0.000000
0.562500 0.375000 0.000000
0.562500 0.437500 0.000000
0.562500 0.500000 0.000000
0.562500 0.562500 0.000000
0.562500 0.625000 0.000000
0.562500 0.687500 0.000000
0.562500 0.750000 0.000000
0.562500 0.812500 0.000000
0.562500 0.875000 0.000000
0.562500 0.937500 0.000000
0.562500 1.000000 0.000000
0.625000 0.000000 0.000000
0.625000 0.062500 0.000000
0.625000 0.125000 0.000000
0.625000 0.187500 0.000000
0.625000 0.250000 0.000000
0.625000 0.312500 0.000000
0.625000 0.375000 0.000000
0.625000 0.437500 0.000000
0.625000 0.500000 0.000000
0.625000 0.562500 0.000000
0.625000 0.625000 0.000000
0.625000 0.687500 0.000000
0.625000 0.750000 0.000000
0.625000 0.812500 0.000000
0.625000 0.875000 0.000000
0.625000 0.937500 0.000000
0.625000 1.000000 0.000000
0.687500 0.000000 0.000000
0.687500 0.062500 0.000000
0.687500 0.125000 0.000000
0.687500 0.187500 0.000000
0.687500 0.250000 0.000000
0.687500 0.312500 0.000000
0.687500 0.375000 0.000000
0.687500 0.437500 0.000000
0.687500 0.500000 0.000000
0.687500 0.562500 0.000000
0.687500 0.625000 0.000000
0.687500 0.687500 0.000000
0.687500 0.750000 0.000000
0.687500 0.812500 0.000000
0.687500 0.875000 0.000000
0.687500 0.937500 0.000000
0.687500 1.000000 0.000000
0.750000 0.000000 0.000000
0.750000 0.062500 0.000000
0.750000 0.125000 0.000000
0.750000 0.187500 0.000000
0.750000 0.250000 0.000000
0.750000 0.312500 0.000000
0.750000 0.375000 0.000000
0.750000 0.437500 0.000000
0.750000 0.500000 0.000000
0.750000 0.562500 0.000000
0.750000 0.625000 0.000000
0.750000 0.687500 0.000000
0.750000 0.750000 0.000000
0.750000 0.812500 0.000000
0.750000 0.875000 0.000000
0.750000 0.937500 0.000000
0.750000 1.000000 0.000000
0.812500 0.000000 0.000000
0.812500 0.062500 0.000000
0.812500 0.125000 0.000000
0.812500 0.187500 0.000000
0.812500 0.250000 0.000000
0.812500 0.312500 0.000000
0.812500 0.375000 0.000000
0.812500 0.437500 0.000000
0.812500 0.500000 0.000000
0.812500 0.562500 0.000000
0.812500 0.625000 0.000000
0.812500 0.687500 0.000000
0.812500 0.750000 0.000000
0.812500 0.812500 0.000000
0.812500 0.875000 0.000000
0.812500 0.937500 0.000000
0.812500 1.000000 0.000000
0.875000 0.000000 0.000000
0.875000 0.062500 0.000000
0.875000 0.125000 0.000000
0.875000 0.187500 0.000000
0.875000 0.250000 0.000000
0.875000 0.312500 0.000000
0.875000 0.375000 0.000000
0.875000 0.437500 0.000000
0.875000 0.500000 0.000000
0.875000 0.562500 0.000000
0.875000 0.625000 0.000000
0.875000 0.687500 0.000000
0.875000 0.750000 0.000000
0.875000 0.812500 0.000000
0.875000 0.875000 0.000000
0.875000 0.937500 0.000000
0.875000 1.000000 0.000000
0.937500 0.000000 0.000000
0.937500 0.062500 0.000000
0.937500 0.125000 0.000000
0.937500 0.187500 0.000000
0.937500 0.250000 0.000000
0.937500 0.312500 0.000000
0.937500 0.375000 0.000000
0.937500 0.437500 0.000000
0.937500 0.500000 0.000000
0.937500 0.562500 0.000000
0.937500 0.625000 0.000000
0.937500 0.687500 0.000000
0.937500 0.750000 0.000000
0.937500 0.812500 0.000000
0.937500 0.875000 0.000000
0.937500 0.937500 0.000000
0.937500 1.000000 0.000000
1.000000 0.000000 0.000000
1.000000 0.062500 0.000000
1.000000 0.125000 0.000000
1.000000 0.187500 0.000000
1.000000 0.250000 0.000000
1.000000 0.312500 0.000000
1.000000 0.375000 0.000000
1.000000 0.437500 0.000000
1.000000 0.500000 0.000000
1.000000 0.562500 0.000000
1.000000 0.625000 0.000000
1.000000 0.687500 0.000000
1.000000 0.750000 0.000000
1.000000 0.812500 0.000000
1.000000 0.875000 0.000000
1.000000 0.937500 0.000000
1.000000 1.000000 0.000000
POINT_DATA 289
SCALARS phi FLOAT 1
LOOKUP_TABLE default
-0.000000000000
0.004893227482
0.009941782678
0.015150596219
0.020524755250
0.026069508402
0.031790270912
0.037692629918
0.043782349911
0.050065378368
0.056547851557
0.063236100534
0.070136657324
0.077256261300
0.084601865766
0.092180644748
0.100000000000
0.000197100476
0.028826742713
0.056421610534
0.082105075580
0.105154075550
0.124998421681
0.141220121249
0.153539889960
0.161800633891
0.165954770572
0.166059486299
0.162281273565
0.154908342308
0.144366694315
0.131232710451
0.116231655453
0.100197100476
0.000565332643
0.054223073920
0.105587355780
0.152807950970
0.194395190079
0.229194512985
0.256370908508
0.275371940208
0.285887580063
0.287820550602
0.281275415655
0.266569126060
0.244260239368
0.215188460501
0.180510597112
0.141714333743
0.100565332643
0.001253280900
0.081993221362
0.158954186372
0.229227423358
0.290530099346
0.341137966175
0.379835271259
0.405836077868
0.418706766195
0.418311166104
0.404790778235
0.378584105744
0.340481025851
0.291699686754
0.233964413618
0.169554814245
0.101253280900
0.002538537451
0.113660691887
0.219083902571
0.314726555469
0.397498698556
0.465155308417
0.516177631096
0.549623029902
0.564988729817
0.562119300731
0.541173992253
0.502658916814
0.447519071085
0.377274078683
0.294167835692
0.201286739892
0.102538537451
0.004939712807
0.151194060638
0.289090132282
0.413235478402
0.519760134200
0.606015451743
0.670328628041
0.711735689971
0.729756674115
0.724249368866
0.695358773464
0.643567135386
0.569839717662
0.475849171694
0.364242215301
0.238884955907
0.104939712807
0.009425698958
0.197315159010
0.372960234377
0.529529307065
0.662499952550
0.769063578907
0.847658934513
0.897524478215
0.918348667675
0.910052830612
0.872717895175
0.806657121708
0.712632715667
0.592205090523
0.448180205421
0.285075982147
0.109425698958
0.017806624451
0.255997899461
0.476032363335
0.669604432290
0.831879580768
0.960353745797
1.054023281561
1.112677619294
1.136390044417
1.125218448471
1.079107198005
0.997984671753
0.882061922712
0.732341361533
0.551323704862
0.343837810289
0.117806624451
0.033464254621
0.333288676298
0.605700983250
0.841170994716
1.035307810152
1.186739747928
1.295726432388
1.363116244178
1.389665776479
1.375667355004
1.320831504169
1.224403823193
1.085536771651
0.903969481970
0.681069630133
0.421220686000
0.133464254621
0.062716558891
0.438661112000
0.772448961195
1.054269453150
1.281693860131
1.455868471997
1.579357021088
1.654746108604
1.683847330895
1.667304715311
1.604478330183
1.493559990287
1.331965018414
1.117129106996
0.847901676841
0.526701771068
0.162716558891
0.117367058087
0.587232597985
0.991299129894
1.321959244349
1.581578253512
1.775975559246
1.911411893354
1.993008700780
2.024024374229
2.005570770976
1.936542055387
1.813685263288
1.631882966144
1.384875736924
1.066840750770
0.675400872712
0.217367058087
0.219467632283
0.803301851472
1.283683260137
1.660874423068
1.946918939453
2.155319502157
2.297612871449
2.382177921110
2.414002595723
2.394737492931
2.322740551891
2.193032089272
1.997240636393
1.723834631129
1.359311508621
0.891615673925
0.319467632283
0.410216617276
1.125700875294
1.679373207949
2.091102463072
2.390115168239
2.601019473850
2.741818690217
2.824381098084
2.855369955329
2.836929688691
2.766927195410
2.638710888843
2.440424629913
2.154077060475
1.755068922942
1.214168030956
0.510216617276
0.766582637374
1.614928501049
2.217105786471
2.634188776219
2.921600211001
3.117036709553
3.244497100108
3.318408155990
3.346421697042
3.330934487466
3.269563523941
3.154671941834
2.971850503473
2.697121954437
2.292815393337
1.703524508107
0.866582637374
1.432362013787
2.359256156421
2.940014302385
3.307059336599
3.545203250724
3.701198071059
3.800911424973
3.858530751542
3.881176088836
3.871021099216
3.825907121385
3.738730968066
3.595326670077
3.369857688194
3.015621561506
2.447873151691
1.532362013787
2.676201642313
3.465633018797
3.876550490235
4.108792417724
4.250955448174
4.341669228306
4.399467678536
4.433686815883
4.448794137331
4.446126218404
4.424360874923
4.379046587477
4.300867746603
4.171322182443
3.951842911362
3.553965689419
2.776201642313
5.000000000000
5.004893227482
5.009941782678
5.015150596219
5.020524755250
5.026069508402
5.031790270912
5.037692629918
5.043782349911
5.050065378368
5.056547851557
5.063236100534
5.070136657324
5.077256261300
5.084601865766
5.092180644748
5.100000000000
