# vtk DataFile Version 2.0
TITLE = "Quad data"
ASCII
DATASET STRUCTURED_GRID
DIMENSIONS 17 17 1
POINTS 289 FLOAT
0.000000 0.000000 0.000000
0.000000 0.062500 0.000000
0.000000 0.125000 0.000000
0.000000 0.187500 0.000000
0.000000 0.250000 0.000000
0.000000 0.312500 0.000000
0.000000 0.375000 0.000000
0.000000 0.437500 0.000000
0.000000 0.500000 0.000000
0.000000 0.562500 0.000000
0.000000 0.625000 0.000000
0.000000 0.687500 0.000000
0.000000 0.750000 0.000000
0.000000 0.812500 0.000000
0.000000 0.875000 0.000000
0.000000 0.937500 0.000000
0.000000 1.000000 0.000000
0.062500 0.000000 0.000000
0.062500 0.062500 0.000000
0.062500 0.125000 0.000000
0.062500 0.187500 0.000000
0.062500 0.250000 0.000000
0.062500 0.312500 0.000000
0.062500 0.375000 0.000000
0.062500 0.437500 0.000000
0.062500 0.500000 0.000000
0.062500 0.562500 0.000000
0.062500 0.625000 0.000000
0.062500 0.687500 0.000000
0.062500 0.750000 0.000000
0.062500 0.812500 0.000000
0.062500 0.875000 0.000000
0.062500 0.937500 0.000000
0.062500 1.000000 0.000000
0.125000 0.000000 0.000000
0.125000 0.062500 0.000000
0.125000 0.125000 0.000000
0.125000 0.187500 0.000000
0.125000 0.250000 0.000000
0.125000 0.312500 0.000000
0.125000 0.375000 0.000000
0.125000 0.437500 0.000000
0.125000 0.500000 0.000000
0.125000 0.562500 0.000000
0.125000 0.625000 0.000000
0.125000 0.687500 0.000000
0.125000 0.750000 0.000000
0.125000 0.812500 0.000000
0.125000 0.875000 0.000000
0.125000 0.937500 0.000000
0.125000 1.000000 0.000000
0.187500 0.000000 0.000000
0.187500 0.062500 0.000000
0.187500 0.125000 0.000000
0.187500 0.187500 0.000000
0.187500 0.250000 0.000000
0.187500 0.312500 0.000000
0.187500 0.375000 0.000000
0.187500 0.437500 0.000000
0.187500 0.500000 0.000000
0.187500 0.562500 0.000000
0.187500 0.625000 0.000000
0.187500 0.687500 0.000000
0.187500 0.750000 0.000000
0.187500 0.812500 0.000000
0.187500 0.875000 0.000000
0.187500 0.937500 0.000000
0.187500 1.000000 0.000000
0.250000 0.000000 0.000000
0.250000 0.062500 0.000000
0.250000 0.125000 0.000000
0.250000 0.187500 0.000000
0.250000 0.250000 0.000000
0.250000 0.312500 0.000000
0.250000 0.375000 0.000000
0.250000 0.437500 0.000000
0.250000 0.500000 0.000000
0.250000 0.562500 0.000000
0.250000 0.625000 0.000000
0.250000 0.687500 0.000000
0.250000 0.750000 0.000000
0.250000 0.812500 0.000000
0.250000 0.875000 0.000000
0.250000 0.937500 0.000000
0.250000 1.000000 0.000000
0.312500 0.000000 0.000000
0.312500 0.062500 0.000000
0.312500 0.125000 0.000000
0.312500 0.187500 0.000000
0.312500 0.250000 0.000000
0.312500 0.312500 0.000000
0.312500 0.375000 0.000000
0.312500 0.437500 0.000000
0.312500 0.500000 0.000000
0.312500 0.562500 0.000000
0.312500 0.625000 0.000000
0.312500 0.687500 0.000000
0.312500 0.750000 0.000000
0.312500 0.812500 0.000000
0.312500 0.875000 0.000000
0.312500 0.937500 0.000000
0.312500 1.000000 0.000000
0.375000 0.000000 0.000000
0.375000 0.062500 0.000000
0.375000 0.125000 0.000000
0.375000 0.187500 0.000000
0.375000 0.250000 0.000000
0.375000 0.312500 0.000000
0.375000 0.375000 0.000000
0.375000 0.437500 0.000000
0.375000 0.500000 0.000000
0.375000 0.562500 0.000000
0.375000 0.625000 0.000000
0.375000 0.687500 0.000000
0.375000 0.750000 0.000000
0.375000 0.812500 0.000000
0.375000 0.875000 0.000000
0.375000 0.937500 0.000000
0.375000 1.000000 0.000000
0.437500 0.000000 0.000000
0.437500 0.062500 0.000000
0.437500 0.125000 0.000000
0.437500 0.187500 0.000000
0.437500 0.250000 0.000000
0.437500 0.312500 0.000000
0.437500 0.375000 0.000000
0.437500 0.437500 0.000000
0.437500 0.500000 0.000000
0.437500 0.562500 0.000000
0.437500 0.625000 0.000000
0.437500 0.687500 0.000000
0.437500 0.750000 0.000000
0.437500 0.812500 0.000000
0.437500 0.875000 0.000000
0.437500 0.937500 0.000000
0.437500 1.000000 0.000000
0.500000 0.000000 0.000000
0.500000 0.062500 0.000000
0.500000 0.125000 0.000000
0.500000 0.187500 0.000000
0.500000 0.250000 0.000000
0.500000 0.312500 0.000000
0.500000 0.375000 0.000000
0.500000 0.437500 0.000000
0.500000 0.500000 0.000000
0.500000 0.562500 0.000000
0.500000 0.625000 0.000000
0.500000 0.687500 0.000000
0.500000 0.750000 0.000000
0.500000 0.812500 0.000000
0.500000 0.875000 0.000000
0.500000 0.937500 0.000000
0.500000 1.000000 0.000000
0.562500 0.000000 0.000000
0.562500 0.062500 0.000000
0.562500 0.125000 0.000000
0.562500 0.187500 0.000000
0.562500 0.250000 0.000000
0.562500 0.312500 0.000000
0.562500 0.375000 0.000000
0.562500 0.437500 0.000000
0.562500 0.500000 0.000000
0.562500 0.562500 0.000000
0.562500 0.625000 0.000000
0.562500 0.687500 0.000000
0.562500 0.750000 0.000000
0.562500 0.812500 0.000000
0.562500 0.875000 0.000000
0.562500 0.937500 0.000000
0.562500 1.000000 0.000000
0.625000 0.000000 0.000000
0.625000 0.062500 0.000000
0.625000 0.125000 0.000000
0.625000 0.187500 0.000000
0.625000 0.250000 0.000000
0.625000 0.312500 0.000000
0.625000 0.375000 0.000000
0.625000 0.437500 0.000000
0.625000 0.500000 0.000000
0.625000 0.562500 0.000000
0.625000 0.625000 0.000000
0.625000 0.687500 0.000000
0.625000 0.750000 0.000000
0.625000 0.812500 0.000000
0.625000 0.875000 0.000000
0.625000 0.937500 0.000000
0.625000 1.000000 0.000000
0.687500 0.000000 0.000000
0.687500 0.062500 0.000000
0.687500 0.125000 0.000000
0.687500 0.187500 0.000000
0.687500 0.250000 0.000000
0.687500 0.312500 0.000000
0.687500 0.375000 0.000000
0.687500 0.437500 0.000000
0.687500 0.500000 0.000000
0.687500 0.562500 0.000000
0.687500 0.625000 0.000000
0.687500 0.687500 0.000000
0.687500 0.750000 0.000000
0.687500 0.812500 0.000000
0.687500 0.875000 0.000000
0.687500 0.937500 0.000000
0.687500 1.000000 0.000000
0.750000 0.000000 0.000000
0.750000 0.062500 0.000000
0.750000 0.125000 0.000000
0.750000 0.187500 0.000000
0.750000 0.250000 0.000000
0.750000 0.312500 0.000000
0.750000 0.375000 0.000000
0.750000 0.437500 0.000000
0.750000 0.500000 0.000000
0.750000 0.562500 0.000000
0.750000 0.625000 0.000000
0.750000 0.687500 0.000000
0.750000 0.750000 0.000000
0.750000 0.812500 0.000000
0.750000 0.875000 0.000000
0.750000 0.937500 0.000000
0.750000 1.000000 0.000000
0.812500 0.000000 0.000000
0.812500 0.062500 0.000000
0.812500 0.125000 0.000000
0.812500 0.187500 0.000000
0.812500 0.250000 0.000000
0.812500 0.312500 0.000000
0.812500 0.375000 0.000000
0.812500 0.437500 0.000000
0.812500 0.500000 0.000000
0.812500 0.562500 0.000000
0.812500 0.625000 0.000000
0.812500 0.687500 0.000000
0.812500 0.750000 0.000000
0.812500 0.812500 0.000000
0.812500 0.875000 0.000000
0.812500 0.937500 0.000000
0.812500 1.000000 0.000000
0.875000 0.000000 0.000000
0.875000 0.062500 0.000000
0.875000 0.125000 0.000000
0.875000 0.187500 0.000000
0.875000 0.250000 0.000000
0.875000 0.312500 0.000000
0.875000 0.375000 0.000000
0.875000 0.437500 0.000000
0.875000 0.500000 0.000000
0.875000 0.562500 0.000000
0.875000 0.625000 0.000000
0.875000 0.687500 0.000000
0.875000 0.750000 0.000000
0.875000 0.812500 0.000000
0.875000 0.875000 0.000000
0.875000 0.937500 0.000000
0.875000 1.000000 0.000000
0.937500 0.000000 0.000000
0.937500 0.062500 0.000000
0.937500 0.125000 0.000000
0.937500 0.187500 0.000000
0.937500 0.250000 0.000000
0.937500 0.312500 0.000000
0.937500 0.375000 0.000000
0.937500 0.437500 0.000000
0.937500 0.500000 0.000000
0.937500 0.562500 0.000000
0.937500 0.625000 0.000000
0.937500 0.687500 0.000000
0.937500 0.750000 0.000000
0.937500 0.812500 0.000000
0.937500 0.875000 0.000000
0.937500 0.937500 0.000000
0.937500 1.000000 0.000000
1.000000 0.000000 0.000000
1.000000 0.062500 0.000000
1.000000 0.125000 0.000000
1.000000 0.187500 0.000000
1.000000 0.250000 0.000000
1.000000 0.312500 0.000000
1.000000 0.375000 0.000000
1.000000 0.437500 0.000000
1.000000 0.500000 0.000000
1.000000 0.562500 0.000000
1.000000 0.625000 0.000000
1.000000 0.687500 0.000000
1.000000 0.750000 0.000000
1.000000 0.812500 0.000000
1.000000 0.875000 0.000000
1.000000 0.937500 0.000000
1.000000 1.000000 0.000000
POINT_DATA 289
SCALARS phi FLOAT 1
LOOKUP_TABLE default
0.000000000000
0.000015258789
0.000244140625
0.001235961914
0.003906250000
0.009536743164
0.019775390625
0.036636352539
0.062500000000
0.100112915039
0.152587890625
0.223403930664
0.316406250000
0.435806274414
0.586181640625
0.772476196289
1.000000000000
0.000015258789
0.457463877366
0.141448700206
0.019733991796
0.000881136450
-0.000442014423
-0.000523321765
-0.000536699796
-0.000505251705
-0.000417884895
-0.000267193083
-0.000053448774
0.000209453422
0.000483596639
0.000687026067
0.000649682863
0.976577758789
0.000244140625
0.141448700206
0.043383608538
0.005541041887
-0.000435515993
-0.000974520780
-0.001104318945
-0.001168852061
-0.001155808482
-0.001044749780
-0.000822234397
-0.000488303930
-0.000066364036
0.000381159806
0.000727211979
0.000737230366
0.906494140625
0.001235961914
0.019733991796
0.005541041887
-0.000091595976
-0.001199130596
-0.001521498880
-0.001751012382
-0.001909763690
-0.001967554018
-0.001895192014
-0.001671728173
-0.001292527532
-0.000780874653
-0.000204717777
0.000299418392
0.000493718205
0.790298461914
0.003906250000
0.000881136450
-0.000435515993
-0.001199130596
-0.001672824204
-0.002085467961
-0.002455645513
-0.002750343914
-0.002929342271
-0.002953439767
-0.002790975525
-0.002426464225
-0.001872347538
-0.001184811473
-0.000484386861
0.000019033354
0.628906250000
0.009536743164
-0.000442014423
-0.000974520780
-0.001521498880
-0.002085467961
-0.002653563322
-0.003193486323
-0.003661353381
-0.004006999809
-0.004179079406
-0.004131424408
-0.003831369466
-0.003270709641
-0.002479886723
-0.001545659166
-0.000631681095
0.423599243164
0.019775390625
-0.000523321765
-0.001104318945
-0.001751012382
-0.002455645513
-0.003193486323
-0.003924428958
-0.004595915605
-0.005146614962
-0.005510932342
-0.005624695769
-0.005432510121
-0.004897335081
-0.004012796510
-0.002818514206
-0.001418248656
0.176025390625
0.036636352539
-0.000536699796
-0.001168852061
-0.001909763690
-0.002750343914
-0.003661353381
-0.004595915605
-0.005492343684
-0.006277308310
-0.006869521075
-0.007184264331
-0.007139225519
-0.006662192730
-0.005701217578
-0.004237810742
-0.002303537098
-0.111801147461
0.062500000000
-0.000505251705
-0.001155808482
-0.001967554018
-0.002929342271
-0.004006999809
-0.005146614962
-0.006277308310
-0.007313733642
-0.008158607896
-0.008705629598
-0.008843242710
-0.008459848451
-0.007451262558
-0.005731422714
-0.003247454810
-0.437500000000
0.100112915039
-0.000417884895
-0.001044749780
-0.001895192014
-0.002953439767
-0.004179079406
-0.005510932342
-0.006869521075
-0.008158607896
-0.009266212562
-0.010065465603
-0.010415702226
-0.010164396292
-0.009150913410
-0.007213630486
-0.004202582490
-0.798324584961
0.152587890625
-0.000267193083
-0.000822234397
-0.001671728173
-0.002790975525
-0.004131424408
-0.005624695769
-0.007184264331
-0.008705629598
-0.010065465603
-0.011120004571
-0.011702862624
-0.011622717906
-0.010661815444
-0.008577343897
-0.005109308943
-1.191162109375
0.223403930664
-0.000053448774
-0.000488303930
-0.001292527532
-0.002426464225
-0.003831369466
-0.005432510121
-0.007139225519
-0.008843242710
-0.010415702226
-0.011702862624
-0.012520246197
-0.012645085066
-0.011807531262
-0.009682667341
-0.005888515636
-1.612533569336
0.316406250000
0.000209453422
-0.000066364036
-0.000780874653
-0.001872347538
-0.003270709641
-0.004897335081
-0.006662192730
-0.008459848451
-0.010164396292
-0.011622717906
-0.012645085066
-0.012991903744
-0.012355585824
-0.010337989414
-0.006428608402
-2.058593750000
0.435806274414
0.000483596639
0.000381159806
-0.000204717777
-0.001184811473
-0.002479886723
-0.004012796510
-0.005701217578
-0.007451262558
-0.009150913410
-0.010661815444
-0.011807531262
-0.012355585824
-0.011989544511
-0.010266684802
-0.006559859955
-2.525131225586
0.586181640625
0.000687026067
0.000727211979
0.000299418392
-0.000484386861
-0.001545659166
-0.002818514206
-0.004237810742
-0.005731422714
-0.007213630486
-0.008577343897
-0.009682667341
-0.010337989414
-0.010266684802
-0.009046385265
-0.005998025546
-3.007568359375
0.772476196289
0.000649682863
0.000737230366
0.000493718205
0.000019033354
-0.000631681095
-0.001418248656
-0.002303537098
-0.003247454810
-0.004202582490
-0.005109308943
-0.005888515636
-0.006428608402
-0.006559859955
-0.005998025546
-0.004205147364
-3.500961303711
1.000000000000
0.976577758789
0.906494140625
0.790298461914
0.628906250000
0.423599243164
0.176025390625
-0.111801147461
-0.437500000000
-0.798324584961
-1.191162109375
-1.612533569336
-2.058593750000
-2.525131225586
-3.007568359375
-3.500961303711
-4.000000000000
