# vtk DataFile Version 2.0
TITLE = "Quad data"
ASCII
DATASET STRUCTURED_GRID
DIMENSIONS 17 17 1
POINTS 289 FLOAT
0.000000 0.000000 0.000000
0.000000 0.062500 0.000000
0.000000 0.125000 0.000000
0.000000 0.187500 0.000000
0.000000 0.250000 0.000000
0.000000 0.312500 0.000000
0.000000 0.375000 0.000000
0.000000 0.437500 0.000000
0.000000 0.500000 0.000000
0.000000 0.562500 0.000000
0.000000 0.625000 0.000000
0.000000 0.687500 0.000000
0.000000 0.750000 0.000000
0.000000 0.812500 0.000000
0.000000 0.875000 0.000000
0.000000 0.937500 0.000000
0.000000 1.000000 0.000000
0.062500 0.000000 0.000000
0.062500 0.062500 0.000000
0.062500 0.125000 0.000000
0.062500 0.187500 0.000000
0.062500 0.250000 0.000000
0.062500 0.312500 0.000000
0.062500 0.375000 0.000000
0.062500 0.437500 0.000000
0.062500 0.500000 0.000000
0.062500 0.562500 0.000000
0.062500 0.625000 0.000000
0.062500 0.687500 0.000000
0.062500 0.750000 0.000000
0.062500 0.812500 0.000000
0.062500 0.875000 0.000000
0.062500 0.937500 0.000000
0.062500 1.000000 0.000000
0.125000 0.000000 0.000000
0.125000 0.062500 0.000000
0.125000 0.125000 0.000000
0.125000 0.187500 0.000000
0.125000 0.250000 0.000000
0.125000 0.312500 0.000000
0.125000 0.375000 0.000000
0.125000 0.437500 0.000000
0.125000 0.500000 0.000000
0.125000 0.562500 0.000000
0.125000 0.625000 0.000000
0.125000 0.687500 0.000000
0.125000 0.750000 0.000000
0.125000 0.812500 0.000000
0.125000 0.875000 0.000000
0.125000 0.937500 0.000000
0.125000 1.000000 0.000000
0.187500 0.000000 0.000000
0.187500 0.062500 0.000000
0.187500 0.125000 0.000000
0.187500 0.187500 0.000000
0.187500 0.250000 0.000000
0.187500 0.312500 0.000000
0.187500 0.375000 0.000000
0.187500 0.437500 0.000000
0.187500 0.500000 0.000000
0.187500 0.562500 0.000000
0.187500 0.625000 0.000000
0.187500 0.687500 0.000000
0.187500 0.750000 0.000000
0.187500 0.812500 0.000000
0.187500 0.875000 0.000000
0.187500 0.937500 0.000000
0.187500 1.000000 0.000000
0.250000 0.000000 0.000000
0.250000 0.062500 0.000000
0.250000 0.125000 0.000000
0.250000 0.187500 0.000000
0.250000 0.250000 0.000000
0.250000 0.312500 0.000000
0.250000 0.375000 0.000000
0.250000 0.437500 0.000000
0.250000 0.500000 0.000000
0.250000 0.562500 0.000000
0.250000 0.625000 0.000000
0.250000 0.687500 0.000000
0.250000 0.750000 0.000000
0.250000 0.812500 0.000000
0.250000 0.875000 0.000000
0.250000 0.937500 0.000000
0.250000 1.000000 0.000000
0.312500 0.000000 0.000000
0.312500 0.062500 0.000000
0.312500 0.125000 0.000000
0.312500 0.187500 0.000000
0.312500 0.250000 0.000000
0.312500 0.312500 0.000000
0.312500 0.375000 0.000000
0.312500 0.437500 0.000000
0.312500 0.500000 0.000000
0.312500 0.562500 0.000000
0.312500 0.625000 0.000000
0.312500 0.687500 0.000000
0.312500 0.750000 0.000000
0.312500 0.812500 0.000000
0.312500 0.875000 0.000000
0.312500 0.937500 0.000000
0.312500 1.000000 0.000000
0.375000 0.000000 0.000000
0.375000 0.062500 0.000000
0.375000 0.125000 0.000000
0.375000 0.187500 0.000000
0.375000 0.250000 0.000000
0.375000 0.312500 0.000000
0.375000 0.375000 0.000000
0.375000 0.437500 0.000000
0.375000 0.500000 0.000000
0.375000 0.562500 0.000000
0.375000 0.625000 0.000000
0.375000 0.687500 0.000000
0.375000 0.750000 0.000000
0.375000 0.812500 0.000000
0.375000 0.875000 0.000000
0.375000 0.937500 0.000000
0.375000 1.000000 0.000000
0.437500 0.000000 0.000000
0.437500 0.062500 0.000000
0.437500 0.125000 0.000000
0.437500 0.187500 0.000000
0.437500 0.250000 0.000000
0.437500 0.312500 0.000000
0.437500 0.375000 0.000000
0.437500 0.437500 0.000000
0.437500 0.500000 0.000000
0.437500 0.562500 0.000000
0.437500 0.625000 0.000000
0.437500 0.687500 0.000000
0.437500 0.750000 0.000000
0.437500 0.812500 0.000000
0.437500 0.875000 0.000000
0.437500 0.937500 0.000000
0.437500 1.000000 0.000000
0.500000 0.000000 0.000000
0.500000 0.062500 0.000000
0.500000 0.125000 0.000000
0.500000 0.187500 0.000000
0.500000 0.250000 0.000000
0.500000 0.312500 0.000000
0.500000 0.375000 0.000000
0.500000 0.437500 0.000000
0.500000 0.500000 0.000000
0.500000 0.562500 0.000000
0.500000 0.625000 0.000000
0.500000 0.687500 0.000000
0.500000 0.750000 0.000000
0.500000 0.812500 0.000000
0.500000 0.875000 0.000000
0.500000 0.937500 0.000000
0.500000 1.000000 0.000000
0.562500 0.000000 0.000000
0.562500 0.062500 0.000000
0.562500 0.125000 0.000000
0.562500 0.187500 0.000000
0.562500 0.250000 0.000000
0.562500 0.312500 0.000000
0.562500 0.375000 0.000000
0.562500 0.437500 0.000000
0.562500 0.500000 0.000000
0.562500 0.562500 0.000000
0.562500 0.625000 0.000000
0.562500 0.687500 0.000000
0.562500 0.750000 0.000000
0.562500 0.812500 0.000000
0.562500 0.875000 0.000000
0.562500 0.937500 0.000000
0.562500 1.000000 0.000000
0.625000 0.000000 0.000000
0.625000 0.062500 0.000000
0.625000 0.125000 0.000000
0.625000 0.187500 0.000000
0.625000 0.250000 0.000000
0.625000 0.312500 0.000000
0.625000 0.375000 0.000000
0.625000 0.437500 0.000000
0.625000 0.500000 0.000000
0.625000 0.562500 0.000000
0.625000 0.625000 0.000000
0.625000 0.687500 0.000000
0.625000 0.750000 0.000000
0.625000 0.812500 0.000000
0.625000 0.875000 0.000000
0.625000 0.937500 0.000000
0.625000 1.000000 0.000000
0.687500 0.000000 0.000000
0.687500 0.062500 0.000000
0.687500 0.125000 0.000000
0.687500 0.187500 0.000000
0.687500 0.250000 0.000000
0.687500 0.312500 0.000000
0.687500 0.375000 0.000000
0.687500 0.437500 0.000000
0.687500 0.500000 0.000000
0.687500 0.562500 0.000000
0.687500 0.625000 0.000000
0.687500 0.687500 0.000000
0.687500 0.750000 0.000000
0.687500 0.812500 0.000000
0.687500 0.875000 0.000000
0.687500 0.937500 0.000000
0.687500 1.000000 0.000000
0.750000 0.000000 0.000000
0.750000 0.062500 0.000000
0.750000 0.125000 0.000000
0.750000 0.187500 0.000000
0.750000 0.250000 0.000000
0.750000 0.312500 0.000000
0.750000 0.375000 0.000000
0.750000 0.437500 0.000000
0.750000 0.500000 0.000000
0.750000 0.562500 0.000000
0.750000 0.625000 0.000000
0.750000 0.687500 0.000000
0.750000 0.750000 0.000000
0.750000 0.812500 0.000000
0.750000 0.875000 0.000000
0.750000 0.937500 0.000000
0.750000 1.000000 0.000000
0.812500 0.000000 0.000000
0.812500 0.062500 0.000000
0.812500 0.125000 0.000000
0.812500 0.187500 0.000000
0.812500 0.250000 0.000000
0.812500 0.312500 0.000000
0.812500 0.375000 0.000000
0.812500 0.437500 0.000000
0.812500 0.500000 0.000000
0.812500 0.562500 0.000000
0.812500 0.625000 0.000000
0.812500 0.687500 0.000000
0.812500 0.750000 0.000000
0.812500 0.812500 0.000000
0.812500 0.875000 0.000000
0.812500 0.937500 0.000000
0.812500 1.000000 0.000000
0.875000 0.000000 0.000000
0.875000 0.062500 0.000000
0.875000 0.125000 0.000000
0.875000 0.187500 0.000000
0.875000 0.250000 0.000000
0.875000 0.312500 0.000000
0.875000 0.375000 0.000000
0.875000 0.437500 0.000000
0.875000 0.500000 0.000000
0.875000 0.562500 0.000000
0.875000 0.625000 0.000000
0.875000 0.687500 0.000000
0.875000 0.750000 0.000000
0.875000 0.812500 0.000000
0.875000 0.875000 0.000000
0.875000 0.937500 0.000000
0.875000 1.000000 0.000000
0.937500 0.000000 0.000000
0.937500 0.062500 0.000000
0.937500 0.125000 0.000000
0.937500 0.187500 0.000000
0.937500 0.250000 0.000000
0.937500 0.312500 0.000000
0.937500 0.375000 0.000000
0.937500 0.437500 0.000000
0.937500 0.500000 0.000000
0.937500 0.562500 0.000000
0.937500 0.625000 0.000000
0.937500 0.687500 0.000000
0.937500 0.750000 0.000000
0.937500 0.812500 0.000000
0.937500 0.875000 0.000000
0.937500 0.937500 0.000000
0.937500 1.000000 0.000000
1.000000 0.000000 0.000000
1.000000 0.062500 0.000000
1.000000 0.125000 0.000000
1.000000 0.187500 0.000000
1.000000 0.250000 0.000000
1.000000 0.312500 0.000000
1.000000 0.375000 0.000000
1.000000 0.437500 0.000000
1.000000 0.500000 0.000000
1.000000 0.562500 0.000000
1.000000 0.625000 0.000000
1.000000 0.687500 0.000000
1.000000 0.750000 0.000000
1.000000 0.812500 0.000000
1.000000 0.875000 0.000000
1.000000 0.937500 0.000000
1.000000 1.000000 0.000000
POINT_DATA 289
SCALARS phi FLOAT 1
LOOKUP_TABLE default
0.000000000000
307.456162372953
624.672030997015
951.957412203413
1289.631946631152
1638.025421413016
1997.478092231171
2368.341015652103
2750.976391985814
3145.757918989510
3553.071156873073
3973.313904859941
4406.896589634288
4854.242666253314
5315.789031681062
5791.986451473831
6283.300000005327
12.384414193913
338.500001165180
675.003584717290
1021.898230630674
1379.461895748424
1747.961742339260
2127.633516850437
2518.653275379149
2921.093295379585
3334.848526048913
3759.507415022040
4194.112921709790
4636.692655520234
5083.263708464453
5525.525088631858
5944.912671479590
6295.684414201459
35.521545946859
382.432794187721
740.030680133313
1108.142845777897
1486.982829755642
1876.713924047525
2277.399291925300
2688.931451425912
3110.923891845228
3542.535385296691
3982.173495319567
4426.975953710649
4871.871471937869
5307.822964179720
5718.464378867217
6073.692602917013
6318.821545949356
78.747398810903
449.039239565575
830.054757972827
1221.344485426784
1623.045476911693
2035.183555870548
2457.585316454310
2889.753885824755
3330.683249397437
3778.569224512995
4230.346755765429
4680.935115045250
5121.994519809018
5539.886187883859
5912.429126275686
6204.210532577396
6362.047398805846
159.503923680602
557.054208310493
964.907200816828
1382.161157347197
1808.891929662839
2244.981340640750
2689.980077281448
3142.920880776679
3602.051040973417
4064.436200415081
4525.363063962938
4977.436013930620
5409.227929831944
5803.337591403239
6133.814695094126
6363.359480380394
6442.803923685085
310.376974804605
741.311683598902
1181.299368332975
1628.708429886471
2083.639389661637
2545.889867744738
3014.755033277580
3488.771724793887
3965.371956821445
4440.397979399598
4907.416413878433
5356.758363216393
5774.220639832403
6139.426262162006
6424.031668428749
6590.389245493960
6593.676974811740
592.244942653077
1066.527067868982
1547.104284792734
2031.179304471151
2519.120674855878
3010.842776115560
3505.525813223076
4001.285777437914
4494.757252086838
4980.544256054226
5450.492051027925
5892.743584364468
6290.583651986685
6621.169730792149
6854.437772653449
6952.772367861030
6875.544942650142
1118.843634113300
1652.851712339576
2187.652509298548
2718.603995981408
3246.917532733934
3773.108343854743
4296.609101489944
4815.363287148646
5325.352066959731
5820.008880141620
6289.487552948088
6719.779022937512
7091.730492180224
7380.124779020834
7553.135971776646
7572.664411368025
7402.143634121883
2102.659510624937
2723.214505812703
3334.082707139569
3927.746251388916
4507.514417042453
5075.537007155098
5632.280194770351
6176.055633624516
6702.524294606672
7204.112183427222
7669.305270450019
8081.838207621809
8419.863199976333
8655.289059446799
8753.610395454663
8674.661762456670
8385.959510632412
3940.669544783322
4690.941373254126
5412.094730516137
6092.263927252845
6739.484213395230
7359.607739262698
7955.638738378046
8527.272517039213
9070.465849095139
9576.923811799403
10033.451849680885
10421.191341916136
10714.841092087368
10882.075020118438
10883.493715020180
10673.554962884553
10223.969544778214
7374.524360808016
8321.706597205301
9204.498005937992
10004.861626333750
10740.895194020748
11426.075085237522
12068.627797686353
12671.357051256757
13231.524793506549
13740.565724268256
14183.545775593437
14538.371348862449
14774.847819379300
14853.803925448075
14726.667628876743
14336.092186252181
13657.824360799885
13789.809739259083
15032.290875234114
16147.977964769803
17111.189715035063
17960.535732987108
18724.076764399302
19419.621038873051
20055.688923021480
20632.306041665277
21141.284199885336
21565.886262714059
21879.870600454022
22045.968441830639
22013.946312251494
21718.649213429624
21078.939448087523
20073.109739255415
25775.140713351433
27440.005077193800
28872.446368972978
30040.186579777335
31021.517555463102
31870.096912599281
32619.345350288979
33286.739999819889
33876.785308259932
34382.484902002849
34785.393872521679
35054.289823628213
35142.371930384004
34982.809747891435
34482.641516474803
33515.989101341744
32058.440713330790
48166.686854050553
50367.672377247523
52174.602335522068
53555.667889958691
54659.024453524806
55577.279140457249
56365.069863273449
57051.203311033540
57645.832581814437
58143.951464826372
58526.064745692704
58756.276134634420
58777.367978651142
58501.691794685110
57795.969687777389
56458.392296729151
54449.986854151808
89999.602412305816
92662.901947061138
94756.960942978549
96251.947531321828
97393.417362215449
98316.460073146984
99094.698755298596
99765.850021218343
100344.555777501737
100828.185488565709
101198.183584403509
101417.623586954476
101424.018834299146
101114.265770585582
100314.762541353324
98722.993177498443
96282.902412378942
168153.777791615576
170406.061154456635
172274.853729434282
173542.870341926609
174497.068781863170
175272.608959821984
175936.828171505447
176522.838616680645
177043.873041307932
177499.241850801336
177875.767581772321
178145.614215722861
178259.332839075680
178129.700616822753
177593.932665356610
176317.967883125093
174437.077791477815
314165.000000000000
314472.456162278657
314789.672031217895
315116.957411944459
315454.631946162495
315803.025421303464
316162.478092278296
316533.341015290993
316915.976391834090
317310.757918961463
317718.071156886639
318138.313905196439
318571.896589958807
319019.242666701379
319480.789031777706
319956.986451275938
320448.299999944982
