# vtk DataFile Version 2.0
TITLE = "Quad data"
ASCII
DATASET STRUCTURED_GRID
DIMENSIONS 17 17 1
POINTS 289 FLOAT
0.000000 0.000000 0.000000
0.000000 0.062500 0.000000
0.000000 0.125000 0.000000
0.000000 0.187500 0.000000
0.000000 0.250000 0.000000
0.000000 0.312500 0.000000
0.000000 0.375000 0.000000
0.000000 0.437500 0.000000
0.000000 0.500000 0.000000
0.000000 0.562500 0.000000
0.000000 0.625000 0.000000
0.000000 0.687500 0.000000
0.000000 0.750000 0.000000
0.000000 0.812500 0.000000
0.000000 0.875000 0.000000
0.000000 0.937500 0.000000
0.000000 1.000000 0.000000
0.062500 0.000000 0.000000
0.062500 0.062500 0.000000
0.062500 0.125000 0.000000
0.062500 0.187500 0.000000
0.062500 0.250000 0.000000
0.062500 0.312500 0.000000
0.062500 0.375000 0.000000
0.062500 0.437500 0.000000
0.062500 0.500000 0.000000
0.062500 0.562500 0.000000
0.062500 0.625000 0.000000
0.062500 0.687500 0.000000
0.062500 0.750000 0.000000
0.062500 0.812500 0.000000
0.062500 0.875000 0.000000
0.062500 0.937500 0.000000
0.062500 1.000000 0.000000
0.125000 0.000000 0.000000
0.125000 0.062500 0.000000
0.125000 0.125000 0.000000
0.125000 0.187500 0.000000
0.125000 0.250000 0.000000
0.125000 0.312500 0.000000
0.125000 0.375000 0.000000
0.125000 0.437500 0.000000
0.125000 0.500000 0.000000
0.125000 0.562500 0.000000
0.125000 0.625000 0.000000
0.125000 0.687500 0.000000
0.125000 0.750000 0.000000
0.125000 0.812500 0.000000
0.125000 0.875000 0.000000
0.125000 0.937500 0.000000
0.125000 1.000000 0.000000
0.187500 0.000000 0.000000
0.187500 0.062500 0.000000
0.187500 0.125000 0.000000
0.187500 0.187500 0.000000
0.187500 0.250000 0.000000
0.187500 0.312500 0.000000
0.187500 0.375000 0.000000
0.187500 0.437500 0.000000
0.187500 0.500000 0.000000
0.187500 0.562500 0.000000
0.187500 0.625000 0.000000
0.187500 0.687500 0.000000
0.187500 0.750000 0.000000
0.187500 0.812500 0.000000
0.187500 0.875000 0.000000
0.187500 0.937500 0.000000
0.187500 1.000000 0.000000
0.250000 0.000000 0.000000
0.250000 0.062500 0.000000
0.250000 0.125000 0.000000
0.250000 0.187500 0.000000
0.250000 0.250000 0.000000
0.250000 0.312500 0.000000
0.250000 0.375000 0.000000
0.250000 0.437500 0.000000
0.250000 0.500000 0.000000
0.250000 0.562500 0.000000
0.250000 0.625000 0.000000
0.250000 0.687500 0.000000
0.250000 0.750000 0.000000
0.250000 0.812500 0.000000
0.250000 0.875000 0.000000
0.250000 0.937500 0.000000
0.250000 1.000000 0.000000
0.312500 0.000000 0.000000
0.312500 0.062500 0.000000
0.312500 0.125000 0.000000
0.312500 0.187500 0.000000
0.312500 0.250000 0.000000
0.312500 0.312500 0.000000
0.312500 0.375000 0.000000
0.312500 0.437500 0.000000
0.312500 0.500000 0.000000
0.312500 0.562500 0.000000
0.312500 0.625000 0.000000
0.312500 0.687500 0.000000
0.312500 0.750000 0.000000
0.312500 0.812500 0.000000
0.312500 0.875000 0.000000
0.312500 0.937500 0.000000
0.312500 1.000000 0.000000
0.375000 0.000000 0.000000
0.375000 0.062500 0.000000
0.375000 0.125000 0.000000
0.375000 0.187500 0.000000
0.375000 0.250000 0.000000
0.375000 0.312500 0.000000
0.375000 0.375000 0.000000
0.375000 0.437500 0.000000
0.375000 0.500000 0.000000
0.375000 0.562500 0.000000
0.375000 0.625000 0.000000
0.375000 0.687500 0.000000
0.375000 0.750000 0.000000
0.375000 0.812500 0.000000
0.375000 0.875000 0.000000
0.375000 0.937500 0.000000
0.375000 1.000000 0.000000
0.437500 0.000000 0.000000
0.437500 0.062500 0.000000
0.437500 0.125000 0.000000
0.437500 0.187500 0.000000
0.437500 0.250000 0.000000
0.437500 0.312500 0.000000
0.437500 0.375000 0.000000
0.437500 0.437500 0.000000
0.437500 0.500000 0.000000
0.437500 0.562500 0.000000
0.437500 0.625000 0.000000
0.437500 0.687500 0.000000
0.437500 0.750000 0.000000
0.437500 0.812500 0.000000
0.437500 0.875000 0.000000
0.437500 0.937500 0.000000
0.437500 1.000000 0.000000
0.500000 0.000000 0.000000
0.500000 0.062500 0.000000
0.500000 0.125000 0.000000
0.500000 0.187500 0.000000
0.500000 0.250000 0.000000
0.500000 0.312500 0.000000
0.500000 0.375000 0.000000
0.500000 0.437500 0.000000
0.500000 0.500000 0.000000
0.500000 0.562500 0.000000
0.500000 0.625000 0.000000
0.500000 0.687500 0.000000
0.500000 0.750000 0.000000
0.500000 0.812500 0.000000
0.500000 0.875000 0.000000
0.500000 0.937500 0.000000
0.500000 1.000000 0.000000
0.562500 0.000000 0.000000
0.562500 0.062500 0.000000
0.562500 0.125000 0.000000
0.562500 0.187500 0.000000
0.562500 0.250000 0.000000
0.562500 0.312500 0.000000
0.562500 0.375000 0.000000
0.562500 0.437500 0.000000
0.562500 0.500000 0.000000
0.562500 0.562500 0.000000
0.562500 0.625000 0.000000
0.562500 0.687500 0.000000
0.562500 0.750000 0.000000
0.562500 0.812500 0.000000
0.562500 0.875000 0.000000
0.562500 0.937500 0.000000
0.562500 1.000000 0.000000
0.625000 0.000000 0.000000
0.625000 0.062500 0.000000
0.625000 0.125000 0.000000
0.625000 0.187500 0.000000
0.625000 0.250000 0.000000
0.625000 0.312500 0.000000
0.625000 0.375000 0.000000
0.625000 0.437500 0.000000
0.625000 0.500000 0.000000
0.625000 0.562500 0.000000
0.625000 0.625000 0.000000
0.625000 0.687500 0.000000
0.625000 0.750000 0.000000
0.625000 0.812500 0.000000
0.625000 0.875000 0.000000
0.625000 0.937500 0.000000
0.625000 1.000000 0.000000
0.687500 0.000000 0.000000
0.687500 0.062500 0.000000
0.687500 0.125000 0.000000
0.687500 0.187500 0.000000
0.687500 0.250000 0.000000
0.687500 0.312500 0.000000
0.687500 0.375000 0.000000
0.687500 0.437500 0.000000
0.687500 0.500000 0.000000
0.687500 0.562500 0.000000
0.687500 0.625000 0.000000
0.687500 0.687500 0.000000
0.687500 0.750000 0.000000
0.687500 0.812500 0.000000
0.687500 0.875000 0.000000
0.687500 0.937500 0.000000
0.687500 1.000000 0.000000
0.750000 0.000000 0.000000
0.750000 0.062500 0.000000
0.750000 0.125000 0.000000
0.750000 0.187500 0.000000
0.750000 0.250000 0.000000
0.750000 0.312500 0.000000
0.750000 0.375000 0.000000
0.750000 0.437500 0.000000
0.750000 0.500000 0.000000
0.750000 0.562500 0.000000
0.750000 0.625000 0.000000
0.750000 0.687500 0.000000
0.750000 0.750000 0.000000
0.750000 0.812500 0.000000
0.750000 0.875000 0.000000
0.750000 0.937500 0.000000
0.750000 1.000000 0.000000
0.812500 0.000000 0.000000
0.812500 0.062500 0.000000
0.812500 0.125000 0.000000
0.812500 0.187500 0.000000
0.812500 0.250000 0.000000
0.812500 0.312500 0.000000
0.812500 0.375000 0.000000
0.812500 0.437500 0.000000
0.812500 0.500000 0.000000
0.812500 0.562500 0.000000
0.812500 0.625000 0.000000
0.812500 0.687500 0.000000
0.812500 0.750000 0.000000
0.812500 0.812500 0.000000
0.812500 0.875000 0.000000
0.812500 0.937500 0.000000
0.812500 1.000000 0.000000
0.875000 0.000000 0.000000
0.875000 0.062500 0.000000
0.875000 0.125000 0.000000
0.875000 0.187500 0.000000
0.875000 0.250000 0.000000
0.875000 0.312500 0.000000
0.875000 0.375000 0.000000
0.875000 0.437500 0.000000
0.875000 0.500000 0.000000
0.875000 0.562500 0.000000
0.875000 0.625000 0.000000
0.875000 0.687500 0.000000
0.875000 0.750000 0.000000
0.875000 0.812500 0.000000
0.875000 0.875000 0.000000
0.875000 0.937500 0.000000
0.875000 1.000000 0.000000
0.937500 0.000000 0.000000
0.937500 0.062500 0.000000
0.937500 0.125000 0.000000
0.937500 0.187500 0.000000
0.937500 0.250000 0.000000
0.937500 0.312500 0.000000
0.937500 0.375000 0.000000
0.937500 0.437500 0.000000
0.937500 0.500000 0.000000
0.937500 0.562500 0.000000
0.937500 0.625000 0.000000
0.937500 0.687500 0.000000
0.937500 0.750000 0.000000
0.937500 0.812500 0.000000
0.937500 0.875000 0.000000
0.937500 0.937500 0.000000
0.937500 1.000000 0.000000
1.000000 0.000000 0.000000
1.000000 0.062500 0.000000
1.000000 0.125000 0.000000
1.000000 0.187500 0.000000
1.000000 0.250000 0.000000
1.000000 0.312500 0.000000
1.000000 0.375000 0.000000
1.000000 0.437500 0.000000
1.000000 0.500000 0.000000
1.000000 0.562500 0.000000
1.000000 0.625000 0.000000
1.000000 0.687500 0.000000
1.000000 0.750000 0.000000
1.000000 0.812500 0.000000
1.000000 0.875000 0.000000
1.000000 0.937500 0.000000
1.000000 1.000000 0.000000
POINT_DATA 289
SCALARS phi FLOAT 1
LOOKUP_TABLE default
-0.000000000000
0.004893227482
0.009941782678
0.015150596219
0.020524755250
0.026069508402
0.031790270912
0.037692629918
0.043782349911
0.050065378368
0.056547851557
0.063236100534
0.070136657324
0.077256261300
0.084601865766
0.092180644748
0.100000000000
0.000000000000
0.000000000000
0.000000000000
0.000000000000
0.000000000000
0.000000000000
0.000000000000
0.000000000000
0.000000000000
0.000000000000
0.000000000000
0.000000000000
0.000000000000
0.000000000000
0.000000000000
0.000000000000
0.000000000000
0.000000000000
0.000000000000
0.000000000000
0.000000000000
0.000000000000
0.000000000000
0.000000000000
0.000000000000
0.000000000000
0.000000000000
0.000000000000
0.000000000000
0.000000000000
0.000000000000
0.000000000000
0.000000000000
0.000000000000
0.000000000000
0.000000000000
0.000000000000
0.000000000000
0.000000000000
0.000000000000
0.000000000000
0.000000000000
0.000000000000
0.000000000000
0.000000000000
0.000000000000
0.000000000000
0.000000000000
0.000000000000
0.000000000000
0.000000000000
0.000000000000
0.000000000000
0.000000000000
0.000000000000
0.000000000000
0.000000000000
0.000000000000
0.000000000000
0.000000000000
0.000000000000
0.000000000000
0.000000000000
0.000000000000
0.000000000000
0.000000000000
0.000000000000
0.000000000000
0.000000000000
0.000000000000
0.000000000000
0.000000000000
0.000000000000
0.000000000000
0.000000000000
0.000000000000
0.000000000000
0.000000000000
0.000000000000
0.000000000000
0.000000000000
0.000000000000
0.000000000000
0.000000000000
0.000000000000
0.000000000000
0.000000000000
0.000000000000
0.000000000000
0.000000000000
0.000000000000
0.000000000000
0.000000000000
0.000000000066
0.000000000000
0.000000000000
0.000000000000
0.000000000000
0.000000000000
0.000000000000
0.000000000000
0.000000000000
0.000000000000
0.000000000000
0.000000000000
0.000000000000
0.000000000000
0.000000000000
0.000000000000
0.000008139759
0.002853026267
0.000008139759
0.000000000000
0.000000000000
0.000000000000
0.000000000000
0.000000000000
0.000000000000
0.000000000000
0.000000000000
0.000000000000
0.000000000000
0.000000000000
0.000000000000
0.000000000000
0.000000000066
0.002853026267
1.000000000000
0.002853026267
0.000000000066
0.000000000000
0.000000000000
0.000000000000
0.000000000000
0.000000000000
0.000000000000
0.000000000000
0.000000000000
0.000000000000
0.000000000000
0.000000000000
0.000000000000
0.000000000000
0.000008139759
0.002853026267
0.000008139759
0.000000000000
0.000000000000
0.000000000000
0.000000000000
0.000000000000
0.000000000000
0.000000000000
0.000000000000
0.000000000000
0.000000000000
0.000000000000
0.000000000000
0.000000000000
0.000000000000
0.000000000000
0.000000000066
0.000000000000
0.000000000000
0.000000000000
0.000000000000
0.000000000000
0.000000000000
0.000000000000
0.000000000000
0.000000000000
0.000000000000
0.000000000000
0.000000000000
0.000000000000
0.000000000000
0.000000000000
0.000000000000
0.000000000000
0.000000000000
0.000000000000
0.000000000000
0.000000000000
0.000000000000
0.000000000000
0.000000000000
0.000000000000
0.000000000000
0.000000000000
0.000000000000
0.000000000000
0.000000000000
0.000000000000
0.000000000000
0.000000000000
0.000000000000
0.000000000000
0.000000000000
0.000000000000
0.000000000000
0.000000000000
0.000000000000
0.000000000000
0.000000000000
0.000000000000
0.000000000000
0.000000000000
0.000000000000
0.000000000000
0.000000000000
0.000000000000
0.000000000000
0.000000000000
0.000000000000
0.000000000000
0.000000000000
0.000000000000
0.000000000000
0.000000000000
0.000000000000
0.000000000000
0.000000000000
0.000000000000
0.000000000000
0.000000000000
0.000000000000
0.000000000000
0.000000000000
0.000000000000
0.000000000000
0.000000000000
0.000000000000
0.000000000000
0.000000000000
0.000000000000
0.000000000000
0.000000000000
0.000000000000
0.000000000000
0.000000000000
0.000000000000
0.000000000000
0.000000000000
0.000000000000
0.000000000000
0.000000000000
0.000000000000
0.000000000000
0.000000000000
0.000000000000
0.000000000000
0.000000000000
0.000000000000
0.000000000000
0.000000000000
5.000000000000
5.004893227482
5.009941782678
5.015150596219
5.020524755250
5.026069508402
5.031790270912
5.037692629918
5.043782349911
5.050065378368
5.056547851557
5.063236100534
5.070136657324
5.077256261300
5.084601865766
5.092180644748
5.100000000000
