# vtk DataFile Version 2.0
TITLE = "Quad data"
ASCII
DATASET STRUCTURED_GRID
DIMENSIONS 33 33 1
POINTS 1089 FLOAT
0.000000 0.000000 0.000000
0.000000 0.031250 0.000000
0.000000 0.062500 0.000000
0.000000 0.093750 0.000000
0.000000 0.125000 0.000000
0.000000 0.156250 0.000000
0.000000 0.187500 0.000000
0.000000 0.218750 0.000000
0.000000 0.250000 0.000000
0.000000 0.281250 0.000000
0.000000 0.312500 0.000000
0.000000 0.343750 0.000000
0.000000 0.375000 0.000000
0.000000 0.406250 0.000000
0.000000 0.437500 0.000000
0.000000 0.468750 0.000000
0.000000 0.500000 0.000000
0.000000 0.531250 0.000000
0.000000 0.562500 0.000000
0.000000 0.593750 0.000000
0.000000 0.625000 0.000000
0.000000 0.656250 0.000000
0.000000 0.687500 0.000000
0.000000 0.718750 0.000000
0.000000 0.750000 0.000000
0.000000 0.781250 0.000000
0.000000 0.812500 0.000000
0.000000 0.843750 0.000000
0.000000 0.875000 0.000000
0.000000 0.906250 0.000000
0.000000 0.937500 0.000000
0.000000 0.968750 0.000000
0.000000 1.000000 0.000000
0.031250 0.000000 0.000000
0.031250 0.031250 0.000000
0.031250 0.062500 0.000000
0.031250 0.093750 0.000000
0.031250 0.125000 0.000000
0.031250 0.156250 0.000000
0.031250 0.187500 0.000000
0.031250 0.218750 0.000000
0.031250 0.250000 0.000000
0.031250 0.281250 0.000000
0.031250 0.312500 0.000000
0.031250 0.343750 0.000000
0.031250 0.375000 0.000000
0.031250 0.406250 0.000000
0.031250 0.437500 0.000000
0.031250 0.468750 0.000000
0.031250 0.500000 0.000000
0.031250 0.531250 0.000000
0.031250 0.562500 0.000000
0.031250 0.593750 0.000000
0.031250 0.625000 0.000000
0.031250 0.656250 0.000000
0.031250 0.687500 0.000000
0.031250 0.718750 0.000000
0.031250 0.750000 0.000000
0.031250 0.781250 0.000000
0.031250 0.812500 0.000000
0.031250 0.843750 0.000000
0.031250 0.875000 0.000000
0.031250 0.906250 0.000000
0.031250 0.937500 0.000000
0.031250 0.968750 0.000000
0.031250 1.000000 0.000000
0.062500 0.000000 0.000000
0.062500 0.031250 0.000000
0.062500 0.062500 0.000000
0.062500 0.093750 0.000000
0.062500 0.125000 0.000000
0.062500 0.156250 0.000000
0.062500 0.187500 0.000000
0.062500 0.218750 0.000000
0.062500 0.250000 0.000000
0.062500 0.281250 0.000000
0.062500 0.312500 0.000000
0.062500 0.343750 0.000000
0.062500 0.375000 0.000000
0.062500 0.406250 0.000000
0.062500 0.437500 0.000000
0.062500 0.468750 0.000000
0.062500 0.500000 0.000000
0.062500 0.531250 0.000000
0.062500 0.562500 0.000000
0.062500 0.593750 0.000000
0.062500 0.625000 0.000000
0.062500 0.656250 0.000000
0.062500 0.687500 0.000000
0.062500 0.718750 0.000000
0.062500 0.750000 0.000000
0.062500 0.781250 0.000000
0.062500 0.812500 0.000000
0.062500 0.843750 0.000000
0.062500 0.875000 0.000000
0.062500 0.906250 0.000000
0.062500 0.937500 0.000000
0.062500 0.968750 0.000000
0.062500 1.000000 0.000000
0.093750 0.000000 0.000000
0.093750 0.031250 0.000000
0.093750 0.062500 0.000000
0.093750 0.093750 0.000000
0.093750 0.125000 0.000000
0.093750 0.156250 0.000000
0.093750 0.187500 0.000000
0.093750 0.218750 0.000000
0.093750 0.250000 0.000000
0.093750 0.281250 0.000000
0.093750 0.312500 0.000000
0.093750 0.343750 0.000000
0.093750 0.375000 0.000000
0.093750 0.406250 0.000000
0.093750 0.437500 0.000000
0.093750 0.468750 0.000000
0.093750 0.500000 0.000000
0.093750 0.531250 0.000000
0.093750 0.562500 0.000000
0.093750 0.593750 0.000000
0.093750 0.625000 0.000000
0.093750 0.656250 0.000000
0.093750 0.687500 0.000000
0.093750 0.718750 0.000000
0.093750 0.750000 0.000000
0.093750 0.781250 0.000000
0.093750 0.812500 0.000000
0.093750 0.843750 0.000000
0.093750 0.875000 0.000000
0.093750 0.906250 0.000000
0.093750 0.937500 0.000000
0.093750 0.968750 0.000000
0.093750 1.000000 0.000000
0.125000 0.000000 0.000000
0.125000 0.031250 0.000000
0.125000 0.062500 0.000000
0.125000 0.093750 0.000000
0.125000 0.125000 0.000000
0.125000 0.156250 0.000000
0.125000 0.187500 0.000000
0.125000 0.218750 0.000000
0.125000 0.250000 0.000000
0.125000 0.281250 0.000000
0.125000 0.312500 0.000000
0.125000 0.343750 0.000000
0.125000 0.375000 0.000000
0.125000 0.406250 0.000000
0.125000 0.437500 0.000000
0.125000 0.468750 0.000000
0.125000 0.500000 0.000000
0.125000 0.531250 0.000000
0.125000 0.562500 0.000000
0.125000 0.593750 0.000000
0.125000 0.625000 0.000000
0.125000 0.656250 0.000000
0.125000 0.687500 0.000000
0.125000 0.718750 0.000000
0.125000 0.750000 0.000000
0.125000 0.781250 0.000000
0.125000 0.812500 0.000000
0.125000 0.843750 0.000000
0.125000 0.875000 0.000000
0.125000 0.906250 0.000000
0.125000 0.937500 0.000000
0.125000 0.968750 0.000000
0.125000 1.000000 0.000000
0.156250 0.000000 0.000000
0.156250 0.031250 0.000000
0.156250 0.062500 0.000000
0.156250 0.093750 0.000000
0.156250 0.125000 0.000000
0.156250 0.156250 0.000000
0.156250 0.187500 0.000000
0.156250 0.218750 0.000000
0.156250 0.250000 0.000000
0.156250 0.281250 0.000000
0.156250 0.312500 0.000000
0.156250 0.343750 0.000000
0.156250 0.375000 0.000000
0.156250 0.406250 0.000000
0.156250 0.437500 0.000000
0.156250 0.468750 0.000000
0.156250 0.500000 0.000000
0.156250 0.531250 0.000000
0.156250 0.562500 0.000000
0.156250 0.593750 0.000000
0.156250 0.625000 0.000000
0.156250 0.656250 0.000000
0.156250 0.687500 0.000000
0.156250 0.718750 0.000000
0.156250 0.750000 0.000000
0.156250 0.781250 0.000000
0.156250 0.812500 0.000000
0.156250 0.843750 0.000000
0.156250 0.875000 0.000000
0.156250 0.906250 0.000000
0.156250 0.937500 0.000000
0.156250 0.968750 0.000000
0.156250 1.000000 0.000000
0.187500 0.000000 0.000000
0.187500 0.031250 0.000000
0.187500 0.062500 0.000000
0.187500 0.093750 0.000000
0.187500 0.125000 0.000000
0.187500 0.156250 0.000000
0.187500 0.187500 0.000000
0.187500 0.218750 0.000000
0.187500 0.250000 0.000000
0.187500 0.281250 0.000000
0.187500 0.312500 0.000000
0.187500 0.343750 0.000000
0.187500 0.375000 0.000000
0.187500 0.406250 0.000000
0.187500 0.437500 0.000000
0.187500 0.468750 0.000000
0.187500 0.500000 0.000000
0.187500 0.531250 0.000000
0.187500 0.562500 0.000000
0.187500 0.593750 0.000000
0.187500 0.625000 0.000000
0.187500 0.656250 0.000000
0.187500 0.687500 0.000000
0.187500 0.718750 0.000000
0.187500 0.750000 0.000000
0.187500 0.781250 0.000000
0.187500 0.812500 0.000000
0.187500 0.843750 0.000000
0.187500 0.875000 0.000000
0.187500 0.906250 0.000000
0.187500 0.937500 0.000000
0.187500 0.968750 0.000000
0.187500 1.000000 0.000000
0.218750 0.000000 0.000000
0.218750 0.031250 0.000000
0.218750 0.062500 0.000000
0.218750 0.093750 0.000000
0.218750 0.125000 0.000000
0.218750 0.156250 0.000000
0.218750 0.187500 0.000000
0.218750 0.218750 0.000000
0.218750 0.250000 0.000000
0.218750 0.281250 0.000000
0.218750 0.312500 0.000000
0.218750 0.343750 0.000000
0.218750 0.375000 0.000000
0.218750 0.406250 0.000000
0.218750 0.437500 0.000000
0.218750 0.468750 0.000000
0.218750 0.500000 0.000000
0.218750 0.531250 0.000000
0.218750 0.562500 0.000000
0.218750 0.593750 0.000000
0.218750 0.625000 0.000000
0.218750 0.656250 0.000000
0.218750 0.687500 0.000000
0.218750 0.718750 0.000000
0.218750 0.750000 0.000000
0.218750 0.781250 0.000000
0.218750 0.812500 0.000000
0.218750 0.843750 0.000000
0.218750 0.875000 0.000000
0.218750 0.906250 0.000000
0.218750 0.937500 0.000000
0.218750 0.968750 0.000000
0.218750 1.000000 0.000000
0.250000 0.000000 0.000000
0.250000 0.031250 0.000000
0.250000 0.062500 0.000000
0.250000 0.093750 0.000000
0.250000 0.125000 0.000000
0.250000 0.156250 0.000000
0.250000 0.187500 0.000000
0.250000 0.218750 0.000000
0.250000 0.250000 0.000000
0.250000 0.281250 0.000000
0.250000 0.312500 0.000000
0.250000 0.343750 0.000000
0.250000 0.375000 0.000000
0.250000 0.406250 0.000000
0.250000 0.437500 0.000000
0.250000 0.468750 0.000000
0.250000 0.500000 0.000000
0.250000 0.531250 0.000000
0.250000 0.562500 0.000000
0.250000 0.593750 0.000000
0.250000 0.625000 0.000000
0.250000 0.656250 0.000000
0.250000 0.687500 0.000000
0.250000 0.718750 0.000000
0.250000 0.750000 0.000000
0.250000 0.781250 0.000000
0.250000 0.812500 0.000000
0.250000 0.843750 0.000000
0.250000 0.875000 0.000000
0.250000 0.906250 0.000000
0.250000 0.937500 0.000000
0.250000 0.968750 0.000000
0.250000 1.000000 0.000000
0.281250 0.000000 0.000000
0.281250 0.031250 0.000000
0.281250 0.062500 0.000000
0.281250 0.093750 0.000000
0.281250 0.125000 0.000000
0.281250 0.156250 0.000000
0.281250 0.187500 0.000000
0.281250 0.218750 0.000000
0.281250 0.250000 0.000000
0.281250 0.281250 0.000000
0.281250 0.312500 0.000000
0.281250 0.343750 0.000000
0.281250 0.375000 0.000000
0.281250 0.406250 0.000000
0.281250 0.437500 0.000000
0.281250 0.468750 0.000000
0.281250 0.500000 0.000000
0.281250 0.531250 0.000000
0.281250 0.562500 0.000000
0.281250 0.593750 0.000000
0.281250 0.625000 0.000000
0.281250 0.656250 0.000000
0.281250 0.687500 0.000000
0.281250 0.718750 0.000000
0.281250 0.750000 0.000000
0.281250 0.781250 0.000000
0.281250 0.812500 0.000000
0.281250 0.843750 0.000000
0.281250 0.875000 0.000000
0.281250 0.906250 0.000000
0.281250 0.937500 0.000000
0.281250 0.968750 0.000000
0.281250 1.000000 0.000000
0.312500 0.000000 0.000000
0.312500 0.031250 0.000000
0.312500 0.062500 0.000000
0.312500 0.093750 0.000000
0.312500 0.125000 0.000000
0.312500 0.156250 0.000000
0.312500 0.187500 0.000000
0.312500 0.218750 0.000000
0.312500 0.250000 0.000000
0.312500 0.281250 0.000000
0.312500 0.312500 0.000000
0.312500 0.343750 0.000000
0.312500 0.375000 0.000000
0.312500 0.406250 0.000000
0.312500 0.437500 0.000000
0.312500 0.468750 0.000000
0.312500 0.500000 0.000000
0.312500 0.531250 0.000000
0.312500 0.562500 0.000000
0.312500 0.593750 0.000000
0.312500 0.625000 0.000000
0.312500 0.656250 0.000000
0.312500 0.687500 0.000000
0.312500 0.718750 0.000000
0.312500 0.750000 0.000000
0.312500 0.781250 0.000000
0.312500 0.812500 0.000000
0.312500 0.843750 0.000000
0.312500 0.875000 0.000000
0.312500 0.906250 0.000000
0.312500 0.937500 0.000000
0.312500 0.968750 0.000000
0.312500 1.000000 0.000000
0.343750 0.000000 0.000000
0.343750 0.031250 0.000000
0.343750 0.062500 0.000000
[...]
POINT_DATA 1089
SCALARS phi FLOAT 1
LOOKUP_TABLE default
0.000000000000
0.000000953674
0.000015258789
0.000077247620
0.000244140625
0.000596046448
0.001235961914
0.002289772034
0.003906250000
0.006257057190
0.009536743164
0.013962745667
0.019775390625
0.027237892151
0.036636352539
0.048279762268
0.062500000000
0.079651832581
0.100112915039
0.124283790588
0.152587890625
0.185471534729
0.223403930664
0.266877174377
0.316406250000
0.372529029846
0.435806274414
0.506821632385
0.586181640625
0.674515724182
0.772476196289
0.880738258362
1.000000000000
0.000000953674
0.000003906714
0.000006859753
0.000044898986
0.000175599282
0.000479263033
0.001059006070
0.002040792888
0.003573452957
0.005828689104
0.009001082197
0.013308093946
0.018990068646
0.026310234322
0.035554703470
0.047032473553
0.061075427310
0.078038332927
0.098298844092
0.122257499942
0.150337724890
0.182985828313
0.220671004064
0.263885329720
0.313143765448
0.368984152254
0.431967209186
0.502676528649
0.581718568025
0.669722633354
0.767340844123
0.875248047336
0.994141578674
0.000015258789
0.000006859753
-0.000036625479
-0.000080110712
-0.000065905516
0.000086400331
0.000480006443
0.001240940490
0.002518079835
0.004483164069
0.007330802574
0.011278479270
0.016566555689
0.023458273019
0.032239753464
0.043220001163
0.056730902759
0.073127227723
0.092786628459
0.116109640197
0.143519680678
0.175463049569
0.212408927559
0.254849374990
0.303299329818
0.358296604535
0.420401881426
0.490198705002
0.568293469469
0.655315397088
0.751916499512
0.858771508185
0.976577758789
0.000077247620
0.000044898986
-0.000080110712
-0.000262810840
-0.000445510968
-0.000547762638
-0.000466321121
-0.000075117209
0.000774761822
0.002255084761
0.004560484758
0.007908464868
0.012539401821
0.018716548597
0.026726036204
0.036876874874
0.049500954837
0.064953046745
0.083610801820
0.105874751709
0.132168308055
0.162937761724
0.198652281611
0.239803912862
0.286907574297
0.340501054641
0.401145006980
0.469422940464
0.545941207761
0.631328986018
0.726238248650
0.831343727104
0.947342872620
0.000244140625
0.000175599282
-0.000065905516
-0.000445510968
-0.000905564882
-0.001365618797
-0.001722411081
-0.001849850029
-0.001599000103
-0.000798071608
0.000747586825
0.003255493622
0.006966038126
0.012142483341
0.019070967877
0.028060507292
0.039442994967
0.053573202599
0.070828780367
0.091610256764
0.116341038107
0.145467407662
0.179458524298
0.218806420551
0.264025999866
0.315655032752
0.374254151388
0.440406842112
0.514719435092
0.597821090572
0.690363781968
0.793022278961
0.906494140625
0.000596046448
0.000479263033
0.000086400331
-0.000547762638
-0.001365618797
-0.002286736588
-0.003207854381
-0.004002871724
-0.004522840601
-0.004595957916
-0.004027559475
-0.002600115332
-0.000073226281
0.003816378762
0.009354844670
0.016851191448
0.026637315137
0.039067988317
0.054520860283
0.073396456870
0.096118179946
0.123132306516
0.154907987369
0.191937245175
0.234734971863
0.283838925115
0.339809723708
0.403230841503
0.474708599923
0.554872159212
0.644373509688
0.743887466148
0.854111671448
0.001235961914
0.001059006070
0.000480006443
-0.000466321121
-0.001722411081
-0.003207854381
-0.004819398134
-0.006430941888
-0.007893532663
-0.009035359985
-0.009661751478
-0.009555169197
-0.008475206684
-0.006158586683
-0.002319159410
0.003352098693
0.011187085812
0.021540575249
0.034790215576
0.051336530485
0.071602918291
0.096035651085
0.125103873488
0.159299600915
0.199137717297
0.245155972134
0.297914976826
0.357998200269
0.426011963885
0.502585436664
0.588370631423
0.684042404497
0.790298461914
0.002289772034
0.002040792888
0.001240940490
-0.000075117209
-0.001849850029
-0.004002871724
-0.006430941888
-0.009007965034
-0.011584988181
-0.013990197884
-0.016028917258
-0.017483603297
-0.018113844578
-0.017656359400
-0.015824994323
-0.012310723081
-0.006781645831
0.001117011287
0.011762896287
0.025556531204
0.042921311645
0.064303506045
0.090172254580
0.121019567701
0.157360324276
0.199732269298
0.248696011194
0.304835018861
0.368755618685
0.441086992136
0.522481174843
0.613613058501
0.715180397034
0.003906250000
0.003573452957
0.002518079835
0.000774761822
-0.001599000103
-0.004522840601
-0.007893532663
-0.011584988181
-0.015448257146
-0.019311526113
-0.022980116377
-0.026236482158
-0.028840208933
-0.030528012019
-0.031013735404
-0.029988350865
-0.027119957341
-0.022053780560
-0.014412172919
-0.003794613603
0.010222291038
0.028084806871
0.050262071084
0.077246091032
0.109551742809
0.147716769586
0.192301779792
0.243890245294
0.303088499859
0.370525738352
0.446854017312
0.532748257632
0.628906250000
0.006257057190
0.005828689104
0.004483164069
0.002255084761
-0.000798071608
-0.004595957916
-0.009035359985
-0.013990197884
-0.019311526113
-0.024827533047
-0.030343539982
-0.035642000025
-0.040482496981
-0.044601744340
-0.047713584410
-0.049508987637
-0.049656052111
-0.047800003269
-0.043563193800
-0.036545103737
-0.026322340760
-0.012448640685
0.005545131853
0.028150982535
0.055883786341
0.089281286444
0.128904093094
0.175335682665
0.229182397103
0.291073444103
0.361660898420
0.441619704716
0.531647682190
0.009536743164
0.009001082197
0.007330802574
0.004560484758
0.000747586825
-0.004027559475
-0.009661751478
-0.016028917258
-0.022980116377
-0.030343539982
-0.037924510481
-0.045505480981
-0.052846034629
-0.059682883951
-0.065729870260
-0.070677963163
-0.074195260197
-0.075926986608
-0.075495495276
-0.072500266786
-0.066517909658
-0.057102160704
-0.043783885521
-0.026071079089
-0.003448866424
0.024620496756
0.058697623475
0.099365995168
0.147231961785
0.202924742537
0.267096427550
0.340421980622
0.423599243164
0.013962745667
0.013308093946
0.011278479270
0.007908464868
0.003255493622
-0.002600115332
-0.009555169197
-0.017483603297
-0.026236482158
-0.035642000025
-0.045505480981
-0.055609378792
-0.065713276604
-0.075553886577
-0.084845049518
-0.093277734559
-0.100520038907
-0.106217187692
-0.109991533909
-0.111442558475
-0.110146870384
-0.105658206953
-0.097507434147
-0.085202546944
-0.068228669704
-0.046048056470
-0.018100091119
0.016198712749
0.057454712333
0.106297136710
0.163378088621
0.229372547057
0.304978370667
0.019775390625
0.018990068646
0.016566555689
0.012539401821
0.006966038126
-0.000073226281
-0.008475206684
-0.018113844578
-0.028840208933
-0.040482496981
-0.052846034629
-0.065713276604
-0.078843806420
-0.091974336237
-0.104818706678
-0.117067886649
-0.128389973183
-0.138430191344
-0.146810894194
-0.153131562822
-0.156968806449
-0.157876362577
-0.155385097169
-0.149003004837
-0.138215208979
-0.122483961813
-0.101248644231
-0.073925765388
-0.039908961913
0.001431003351
0.050746243165
0.108711748320
0.176025390625
0.027237892151
0.026310234322
0.023458273019
0.018716548597
0.012142483341
0.003816378762
-0.006158586683
-0.017656359400
-0.030528012019
-0.044601744340
-0.059682883951
-0.075553886577
-0.091974336237
-0.108680945273
-0.125387554310
-0.141785132177
-0.157541775832
-0.172302710310
-0.185690288700
-0.197303992170
-0.206720430015
-0.213493339736
-0.217153587115
-0.217209166257
-0.213145199564
-0.204423937571
-0.190484758603
-0.170744168155
-0.144595797947
-0.111410404560
-0.070535867630
-0.021297187566
0.037003517151
0.036636352539
0.035554703470
0.032239753464
0.026726036204
0.019070967877
0.009354844670
-0.002319159410
-0.015824994323
-0.031013735404
-0.047713584410
-0.065729870260
-0.084845049518
-0.104818706678
-0.125387554310
-0.146265433114
-0.167143311918
-0.187689287660
-0.207548585363
-0.226343558129
-0.243673687144
-0.259115581706
-0.272222979239
-0.282526745298
-0.289534873513
-0.292732485447
-0.291581830305
-0.285522284454
-0.273970350684
-0.256319657160
-0.231940956015
-0.200182121558
-0.160368148105
-0.111801147461
0.048279762268
0.047032473553
0.043220001163
0.036876874874
0.028060507292
0.016851191448
0.003352098693
-0.012310723081
-0.029988350865
-0.049508987637
-0.070677963163
-0.093277734559
-0.117067886649
-0.141785132177
-0.167143311918
-0.192833394723
-0.218523477528
-0.243858785355
-0.268461671307
-0.291931616573
-0.313845230425
-0.333756250216
-0.351195541324
-0.365671097051
-0.376668038407
-0.383648613749
-0.386052198224
-0.383295292966
-0.374771523993
-0.359851640780
-0.337883514483
-0.308192135833
-0.270079612732
0.062500000000
0.061075427310
0.056730902759
0.049500954837
0.039442994967
0.026637315137
0.011187085812
-0.006781645831
-0.027119957341
-0.049656052111
-0.074195260197
-0.100520038907
-0.128389973183
-0.157541775832
-0.187689287660
-0.218523477528
-0.249712442375
-0.280901407222
-0.311712725174
-0.341745877414
-0.370577473208
-0.397761249875
-0.422828072731
-0.445285934961
-0.464619957381
-0.480292388058
-0.491742601727
-0.498387098963
-0.499619505067
-0.494810568629
-0.483308159762
-0.464437268014
-0.437500000000
0.079651832581
0.078038332927
0.073127227723
0.064953046745
0.053573202599
0.039067988317
0.021540575249
0.001117011287
-0.022053780560
-0.047800003269
-0.075926986608
-0.106217187692
-0.138430191344
-0.172302710310
-0.207548585363
-0.243858785355
-0.280901407222
-0.318321675986
-0.355741944751
-0.392761694703
-0.428957535118
-0.463883203345
-0.497069564765
-0.528024612680
-0.556233468097
-0.581158379376
-0.602238721664
-0.618890996093
-0.630508828682
-0.636462968906
-0.636101287922
-0.628748776459
-0.613707542419
0.100112915039
0.098298844092
0.092786628459
0.083610801820
0.070828780367
0.054520860283
0.034790215576
0.011762896287
-0.014412172919
-0.043563193800
-0.075495495276
-0.109991533909
-0.146810894194
-0.185690288700
-0.226343558129
-0.268461671307
-0.311712725174
-0.355741944751
-0.400171683140
-0.444601421530
-0.488607769215
-0.531744463622
-0.573542370305
-0.613509482895
-0.651130922953
-0.685868939685
-0.717162909458
-0.744429335062
-0.767061844662
-0.784431190391
-0.795885246559
-0.800749007480
-0.798324584961
0.124283790588
0.122257499942
0.116109640197
0.105874751709
0.091610256764
0.073396456870
0.051336530485
0.025556531204
-0.003794613603
-0.036545103737
-0.072500266786
-0.111442558475
-0.153131562822
-0.197303992170
-0.243673687144
-0.291931616573
-0.341745877414
-0.392761694703
-0.444601421530
-0.496864539061
-0.549127656592
-0.600944511624
-0.651845969939
-0.701340025642
-0.748911801135
-0.794023546953
-0.836114641421
-0.874601590035
-0.908878024513
-0.938314701438
-0.962259500444
-0.980037421942
-0.990950584412
0.152587890625
0.150337724890
0.143519680678
0.132168308055
0.116341038107
0.096118179946
0.071602918291
0.042921311645
0.010222291038
-0.026322340760
-0.066517909658
-0.110146870384
-0.156968806449
-0.206720430015
-0.259115581706
-0.313845230425
-0.370577473208
-0.428957535118
-0.488607769215
-0.549127656592
-0.610093806467
-0.671059956343
-0.731556972183
-0.791092848600
-0.849152708991
-0.905198805572
-0.958670519238
-1.008984359144
-1.055533961918
-1.097690090403
-1.134800631837
-1.166190595431
-1.191162109375
0.185471534729
0.182985828313
0.175463049569
0.162937761724
0.145467407662
0.123132306516
0.096035651085
0.064303506045
0.028084806871
-0.012448640685
-0.057102160704
-0.105658206953
-0.157876362577
-0.213493339736
-0.272222979239
-0.333756250216
-0.397761249875
-0.463883203345
-0.531744463622
-0.600944511624
-0.671059956343
-0.741644535097
-0.812229113852
-0.882321687585
-0.951407380655
-1.018948447106
-1.084384270816
-1.147131365384
-1.206583373610
-1.262111066419
-1.313062341069
-1.358762218569
-1.398512840271
0.223403930664
0.220671004064
0.212408927559
0.198652281611
0.179458524298
0.154907987369
0.125103873488
0.090172254580
0.050262071084
0.005545131853
-0.043783885521
-0.097507434147
-0.155385097169
-0.217153587115
-0.282526745298
-0.351195541324
-0.422828072731
-0.497069564765
-0.573542370305
-0.651845969939
-0.731556972183
-0.812229113852
-0.893393260541
-0.974557407231
-1.055206678939
-1.134803331381
-1.212786751536
-1.288573457965
-1.361557100721
-1.431108460593
-1.496575447453
-1.557283097505
-1.612533569336
0.266877174377
0.263885329720
0.254849374990
0.239803912862
0.218806420551
0.191937245175
0.159299600915
0.121019567701
0.077246091032
0.028150982535
-0.026071079089
-0.085202546944
-0.149003004837
-0.217209166257
-0.289534873513
-0.365671097051
-0.445285934961
-0.528024612680
-0.613509482895
-0.701340025642
-0.791092848600
-0.882321687585
-0.974557407231
-1.067308001859
-1.160058596488
-1.252271447944
-1.343385945980
-1.432818614219
-1.519963110717
-1.604190227777
-1.684847890646
-1.761261154661
-1.832732200623
0.316406250000
0.313143765448
0.303299329818
0.286907574297
0.264025999866
0.234734971863
0.199137717297
0.157360324276
0.109551742809
0.055883786341
-0.003448866424
-0.068228669704
-0.138215208979
-0.213145199564
-0.292732485447
-0.376668038407
-0.464619957381
-0.556233468097
-0.651130922953
-0.748911801135
-0.849152708991
-0.951407380655
-1.055206678939
-1.160058596488
-1.265448257208
-1.370837917929
-1.475666970220
-1.579351942216
-1.681286500149
-1.780841449153
-1.877364732692
-1.970181429869
-2.058593750000
0.372529029846
0.368984152254
0.358296604535
0.340501054641
0.315655032752
0.283838925115
0.245155972134
0.199732269298
0.147716769586
0.089281286444
0.024620496756
-0.046048056470
-0.122483961813
-0.204423937571
-0.291581830305
-0.383648613749
-0.480292388058
-0.581158379376
-0.685868939685
-0.794023546953
-0.905198805572
-1.018948447106
-1.134803331381
-1.252271447944
-1.370837917929
-1.489964996342
-1.609092074756
-1.727635684274
-1.844989498510
-1.960524335994
-2.073588161098
-2.183506082125
-2.289580345154
0.435806274414
0.431967209186
0.420401881426
0.401145006980
0.374254151388
0.339809723708
0.297914976826
0.248696011194
0.192301779792
0.128904093094
0.058697623475
-0.018100091119
-0.101248644231
-0.190484758603
-0.285522284454
-0.386052198224
-0.491742601727
-0.602238721664
-0.717162909458
-0.836114641421
-0.958670519238
-1.084384270816
-1.212786751536
-1.343385945980
-1.475666970220
-1.609092074756
-1.743100648186
-1.877109221616
-2.010511473622
-2.142678235216
-2.272957493581
-2.400674392380
-2.525131225586
0.506821632385
0.502676528649
0.490198705002
0.469422940464
0.440406842112
0.403230841503
0.357998200269
0.304835018861
0.243890245294
0.175335682665
0.099365995168
0.016198712749
-0.073925765388
-0.170744168155
-0.273970350684
-0.383295292966
-0.498387098963
-0.618890996093
-0.744429335062
-0.874601590035
-1.008984359144
-1.147131365384
-1.288573457965
-1.432818614219
-1.579351942216
-1.727635684274
-1.877109221616
-2.027189080381
-2.177268939147
-2.326719637668
-2.474889185628
-2.621102768228
-2.764662742615
0.586181640625
0.581718568025
0.568293469469
0.545941207761
0.514719435092
0.474708599923
0.426011963885
0.368755618685
0.303088499859
0.229182397103
0.147231961785
0.057454712333
-0.039908961913
-0.144595797947
-0.256319657160
-0.374771523993
-0.499619505067
-0.630508828682
-0.767061844662
-0.908878024513
-1.055533961918
-1.206583373610
-1.361557100721
-1.519963110717
-1.681286500149
-1.844989498510
-2.010511473622
-2.177268939147
-2.344655564914
-2.512042190682
-2.678776843035
-2.844184752290
-3.007568359375
0.674515724182
0.669722633354
0.655315397088
0.631328986018
0.597821090572
0.554872159212
0.502585436664
0.441086992136
0.370525738352
0.291073444103
0.202924742537
0.106297136710
0.001431003351
-0.111410404560
-0.231940956015
-0.359851640780
-0.494810568629
-0.636462968906
-0.784431190391
-0.938314701438
-1.097690090403
-1.262111066419
-1.431108460593
-1.604190227777
-1.780841449153
-1.960524335994
-2.142678235216
-2.326719637668
-2.512042190682
-2.698016717111
-2.883991243539
-3.069291038522
-3.253218650818
0.772476196289
0.767340844123
0.751916499512
0.726238248650
0.690363781968
0.644373509688
0.588370631423
0.522481174843
0.446854017312
0.361660898420
0.267096427550
0.163378088621
0.050746243165
-0.070535867630
-0.200182121558
-0.337883514483
-0.483308159762
-0.636101287922
-0.795885246559
-0.962259500444
-1.134800631837
-1.313062341069
-1.496575447453
-1.684847890646
-1.877364732692
-2.073588161098
-2.272957493581
-2.474889185628
-2.678776843035
-2.883991243539
-3.089880375490
-3.295769507441
-3.500961303711
0.880738258362
0.875248047336
0.858771508185
0.831343727104
0.793022278961
0.743887466148
0.684042404497
0.613613058501
0.532748257632
0.441619704716
0.340421980622
0.229372547057
0.108711748320
-0.021297187566
-0.160368148105
-0.308192135833
-0.464437268014
-0.628748776459
-0.800749007480
-0.980037421942
-1.166190595431
-1.358762218569
-1.557283097505
-1.761261154661
-1.970181429869
-2.183506082125
-2.400674392380
-2.621102768228
-2.844184752290
-3.069291038522
-3.295769507441
-3.522945312039
-3.750121116638
1.000000000000
0.994141578674
0.976577758789
0.947342872620
0.906494140625
0.854111671448
0.790298461914
0.715180397034
0.628906250000
0.531647682190
0.423599243164
0.304978370667
0.176025390625
0.037003517151
-0.111801147461
-0.270079612732
-0.437500000000
-0.613707542419
-0.798324584961
-0.990950584412
-1.191162109375
-1.398512840271
-1.612533569336
-1.832732200623
-2.058593750000
-2.289580345154
-2.525131225586
-2.764662742615
-3.007568359375
-3.253218650818
-3.500961303711
-3.750121116638
-4.000000000000
