# vtk DataFile Version 2.0
TITLE = "Quad data"
ASCII
DATASET STRUCTURED_GRID
DIMENSIONS 257 257 1
POINTS 66049 FLOAT
0.000000 0.000000 0.000000
0.000000 0.003906 0.000000
0.000000 0.007812 0.000000
0.000000 0.011719 0.000000
0.000000 0.015625 0.000000
0.000000 0.019531 0.000000
0.000000 0.023438 0.000000
0.000000 0.027344 0.000000
0.000000 0.031250 0.000000
0.000000 0.035156 0.000000
0.000000 0.039062 0.000000
0.000000 0.042969 0.000000
0.000000 0.046875 0.000000
0.000000 0.050781 0.000000
0.000000 0.054688 0.000000
0.000000 0.058594 0.000000
0.000000 0.062500 0.000000
0.000000 0.066406 0.000000
0.000000 0.070312 0.000000
0.000000 0.074219 0.000000
0.000000 0.078125 0.000000
0.000000 0.082031 0.000000
0.000000 0.085938 0.000000
0.000000 0.089844 0.000000
0.000000 0.093750 0.000000
0.000000 0.097656 0.000000
0.000000 0.101562 0.000000
0.000000 0.105469 0.000000
0.000000 0.109375 0.000000
0.000000 0.113281 0.000000
0.000000 0.117188 0.000000
0.000000 0.121094 0.000000
0.000000 0.125000 0.000000
0.000000 0.128906 0.000000
0.000000 0.132812 0.000000
0.000000 0.136719 0.000000
0.000000 0.140625 0.000000
0.000000 0.144531 0.000000
0.000000 0.148438 0.000000
0.000000 0.152344 0.000000
0.000000 0.156250 0.000000
0.000000 0.160156 0.000000
0.000000 0.164062 0.000000
0.000000 0.167969 0.000000
0.000000 0.171875 0.000000
0.000000 0.175781 0.000000
0.000000 0.179688 0.000000
0.000000 0.183594 0.000000
0.000000 0.187500 0.000000
0.000000 0.191406 0.000000
0.000000 0.195312 0.000000
0.000000 0.199219 0.000000
0.000000 0.203125 0.000000
0.000000 0.207031 0.000000
0.000000 0.210938 0.000000
0.000000 0.214844 0.000000
0.000000 0.218750 0.000000
0.000000 0.222656 0.000000
0.000000 0.226562 0.000000
0.000000 0.230469 0.000000
0.000000 0.234375 0.000000
0.000000 0.238281 0.000000
0.000000 0.242188 0.000000
0.000000 0.246094 0.000000
0.000000 0.250000 0.000000
0.000000 0.253906 0.000000
0.000000 0.257812 0.000000
0.000000 0.261719 0.000000
0.000000 0.265625 0.000000
0.000000 0.269531 0.000000
0.000000 0.273438 0.000000
0.000000 0.277344 0.000000
0.000000 0.281250 0.000000
0.000000 0.285156 0.000000
0.000000 0.289062 0.000000
0.000000 0.292969 0.000000
0.000000 0.296875 0.000000
0.000000 0.300781 0.000000
0.000000 0.304688 0.000000
0.000000 0.308594 0.000000
0.000000 0.312500 0.000000
0.000000 0.316406 0.000000
0.000000 0.320312 0.000000
0.000000 0.324219 0.000000
0.000000 0.328125 0.000000
0.000000 0.332031 0.000000
0.000000 0.335938 0.000000
0.000000 0.339844 0.000000
0.000000 0.343750 0.000000
0.000000 0.347656 0.000000
0.000000 0.351562 0.000000
0.000000 0.355469 0.000000
0.000000 0.359375 0.000000
0.000000 0.363281 0.000000
0.000000 0.367188 0.000000
0.000000 0.371094 0.000000
0.000000 0.375000 0.000000
0.000000 0.378906 0.000000
0.000000 0.382812 0.000000
0.000000 0.386719 0.000000
0.000000 0.390625 0.000000
0.000000 0.394531 0.000000
0.000000 0.398438 0.000000
0.000000 0.402344 0.000000
0.000000 0.406250 0.000000
0.000000 0.410156 0.000000
0.000000 0.414062 0.000000
0.000000 0.417969 0.000000
0.000000 0.421875 0.000000
0.000000 0.425781 0.000000
0.000000 0.429688 0.000000
0.000000 0.433594 0.000000
0.000000 0.437500 0.000000
0.000000 0.441406 0.000000
0.000000 0.445312 0.000000
0.000000 0.449219 0.000000
0.000000 0.453125 0.000000
0.000000 0.457031 0.000000
0.000000 0.460938 0.000000
0.000000 0.464844 0.000000
0.000000 0.468750 0.000000
0.000000 0.472656 0.000000
0.000000 0.476562 0.000000
0.000000 0.480469 0.000000
0.000000 0.484375 0.000000
0.000000 0.488281 0.000000
0.000000 0.492188 0.000000
0.000000 0.496094 0.000000
0.000000 0.500000 0.000000
0.000000 0.503906 0.000000
0.000000 0.507812 0.000000
0.000000 0.511719 0.000000
0.000000 0.515625 0.000000
0.000000 0.519531 0.000000
0.000000 0.523438 0.000000
0.000000 0.527344 0.000000
0.000000 0.531250 0.000000
0.000000 0.535156 0.000000
0.000000 0.539062 0.000000
0.000000 0.542969 0.000000
0.000000 0.546875 0.000000
0.000000 0.550781 0.000000
0.000000 0.554688 0.000000
0.000000 0.558594 0.000000
0.000000 0.562500 0.000000
0.000000 0.566406 0.000000
0.000000 0.570312 0.000000
0.000000 0.574219 0.000000
0.000000 0.578125 0.000000
0.000000 0.582031 0.000000
0.000000 0.585938 0.000000
0.000000 0.589844 0.000000
0.000000 0.593750 0.000000
0.000000 0.597656 0.000000
0.000000 0.601562 0.000000
0.000000 0.605469 0.000000
0.000000 0.609375 0.000000
0.000000 0.613281 0.000000
0.000000 0.617188 0.000000
0.000000 0.621094 0.000000
0.000000 0.625000 0.000000
0.000000 0.628906 0.000000
0.000000 0.632812 0.000000
0.000000 0.636719 0.000000
0.000000 0.640625 0.000000
0.000000 0.644531 0.000000
0.000000 0.648438 0.000000
0.000000 0.652344 0.000000
0.000000 0.656250 0.000000
0.000000 0.660156 0.000000
0.000000 0.664062 0.000000
0.000000 0.667969 0.000000
0.000000 0.671875 0.000000
0.000000 0.675781 0.000000
0.000000 0.679688 0.000000
0.000000 0.683594 0.000000
0.000000 0.687500 0.000000
0.000000 0.691406 0.000000
0.000000 0.695312 0.000000
0.000000 0.699219 0.000000
0.000000 0.703125 0.000000
0.000000 0.707031 0.000000
0.000000 0.710938 0.000000
0.000000 0.714844 0.000000
0.000000 0.718750 0.000000
0.000000 0.722656 0.000000
0.000000 0.726562 0.000000
0.000000 0.730469 0.000000
0.000000 0.734375 0.000000
0.000000 0.738281 0.000000
0.000000 0.742188 0.000000
0.000000 0.746094 0.000000
0.000000 0.750000 0.000000
0.000000 0.753906 0.000000
0.000000 0.757812 0.000000
0.000000 0.761719 0.000000
0.000000 0.765625 0.000000
0.000000 0.769531 0.000000
0.000000 0.773438 0.000000
0.000000 0.777344 0.000000
0.000000 0.781250 0.000000
0.000000 0.785156 0.000000
0.000000 0.789062 0.000000
0.000000 0.792969 0.000000
0.000000 0.796875 0.000000
0.000000 0.800781 0.000000
0.000000 0.804688 0.000000
0.000000 0.808594 0.000000
0.000000 0.812500 0.000000
0.000000 0.816406 0.000000
0.000000 0.820312 0.000000
0.000000 0.824219 0.000000
0.000000 0.828125 0.000000
0.000000 0.832031 0.000000
0.000000 0.835938 0.000000
0.000000 0.839844 0.000000
0.000000 0.843750 0.000000
0.000000 0.847656 0.000000
0.000000 0.851562 0.000000
0.000000 0.855469 0.000000
0.000000 0.859375 0.000000
0.000000 0.863281 0.000000
0.000000 0.867188 0.000000
0.000000 0.871094 0.000000
0.000000 0.875000 0.000000
0.000000 0.878906 0.000000
0.000000 0.882812 0.000000
0.000000 0.886719 0.000000
0.000000 0.890625 0.000000
0.000000 0.894531 0.000000
0.000000 0.898438 0.000000
0.000000 0.902344 0.000000
0.000000 0.906250 0.000000
0.000000 0.910156 0.000000
0.000000 0.914062 0.000000
0.000000 0.917969 0.000000
0.000000 0.921875 0.000000
0.000000 0.925781 0.000000
0.000000 0.929688 0.000000
0.000000 0.933594 0.000000
0.000000 0.937500 0.000000
0.000000 0.941406 0.000000
0.000000 0.945312 0.000000
0.000000 0.949219 0.000000
0.000000 0.953125 0.000000
0.000000 0.957031 0.000000
0.000000 0.960938 0.000000
0.000000 0.964844 0.000000
0.000000 0.968750 0.000000
0.000000 0.972656 0.000000
0.000000 0.976562 0.000000
0.000000 0.980469 0.000000
0.000000 0.984375 0.000000
0.000000 0.988281 0.000000
0.000000 0.992188 0.000000
0.000000 0.996094 0.000000
0.000000 1.000000 0.000000
0.003906 0.000000 0.000000
0.003906 0.003906 0.000000
0.003906 0.007812 0.000000
0.003906 0.011719 0.000000
0.003906 0.015625 0.000000
0.003906 0.019531 0.000000
0.003906 0.023438 0.000000
0.003906 0.027344 0.000000
0.003906 0.031250 0.000000
0.003906 0.035156 0.000000
0.003906 0.039062 0.000000
0.003906 0.042969 0.000000
0.003906 0.046875 0.000000
0.003906 0.050781 0.000000
0.003906 0.054688 0.000000
0.003906 0.058594 0.000000
0.003906 0.062500 0.000000
0.003906 0.066406 0.000000
0.003906 0.070312 0.000000
0.003906 0.074219 0.000000
0.003906 0.078125 0.000000
0.003906 0.082031 0.000000
0.003906 0.085938 0.000000
0.003906 0.089844 0.000000
0.003906 0.093750 0.000000
0.003906 0.097656 0.000000
0.003906 0.101562 0.000000
0.003906 0.105469 0.000000
0.003906 0.109375 0.000000
0.003906 0.113281 0.000000
0.003906 0.117188 0.000000
0.003906 0.121094 0.000000
0.003906 0.125000 0.000000
0.003906 0.128906 0.000000
0.003906 0.132812 0.000000
0.003906 0.136719 0.000000
0.003906 0.140625 0.000000
0.003906 0.144531 0.000000
0.003906 0.148438 0.000000
0.003906 0.152344 0.000000
0.003906 0.156250 0.000000
0.003906 0.160156 0.000000
0.003906 0.164062 0.000000
0.003906 0.167969 0.000000
0.003906 0.171875 0.000000
0.003906 0.175781 0.000000
0.003906 0.179688 0.000000
0.003906 0.183594 0.000000
0.003906 0.187500 0.000000
0.003906 0.191406 0.000000
0.003906 0.195312 0.000000
0.003906 0.199219 0.000000
0.003906 0.203125 0.000000
0.003906 0.207031 0.000000
0.003906 0.210938 0.000000
0.003906 0.214844 0.000000
0.003906 0.218750 0.000000
0.003906 0.222656 0.000000
0.003906 0.226562 0.000000
0.003906 0.230469 0.000000
0.003906 0.234375 0.000000
0.003906 0.238281 0.000000
0.003906 0.242188 0.000000
0.003906 0.246094 0.000000
0.003906 0.250000 0.000000
0.003906 0.253906 0.000000
0.003906 0.257812 0.000000
0.003906 0.261719 0.000000
0.003906 0.265625 0.000000
0.003906 0.269531 0.000000
0.003906 0.273438 0.000000
0.003906 0.277344 0.000000
0.003906 0.281250 0.000000
0.003906 0.285156 0.000000
0.003906 0.289062 0.000000
0.003906 0.292969 0.000000
0.003906 0.296875 0.000000
0.003906 0.300781 0.000000
0.003906 0.304688 0.000000
0.003906 0.308594 0.000000
0.003906 0.312500 0.000000
0.003906 0.316406 0.000000
0.003906 0.320312 0.000000
0.003906 0.324219 0.000000
0.003906 0.328125 0.000000
0.003906 0.332031 0.000000
0.003906 0.335938 0.000000
0.003906 0.339844 0.000000
0.003906 0.343750 0.000000
0.003906 0.347656 0.000000
0.003906 0.351562 0.000000
0.003906 0.355469 0.000000
0.003906 0.359375 0.000000
0.003906 0.363281 0.000000
0.003906 0.367188 0.000000
0.003906 0.371094 0.000000
0.003906 0.375000 0.000000
0.003906 0.378906 0.000000
0.003906 0.382812 0.000000
0.003906 0.386719 0.000000
0.003906 0.390625 0.000000
0.003906 0.394531 0.000000
0.003906 0.398438 0.000000
0.003906 0.402344 0.000000
0.003906 0.406250 0.000000
0.003906 0.410156 0.000000
0.003906 0.414062 0.000000
0.003906 0.417969 0.000000
0.003906 0.421875 0.000000
[...]
POINT_DATA 66049
SCALARS phi FLOAT 1
LOOKUP_TABLE default
0.000000000000
0.000301367271
0.000603323725
0.000905870515
0.001209008793
0.001512739717
0.001817064445
0.002121984139
0.002427499960
0.002733613075
0.003040324652
0.003347635860
0.003655547871
0.003964061861
0.004273179007
0.004582900486
0.004893227482
0.005204161177
0.005515702758
0.005827853414
0.006140614334
0.006453986712
0.006767971744
0.007082570628
0.007397784562
0.007713614751
0.008030062398
0.008347128711
0.008664814899
0.008983122174
0.009302051751
0.009621604846
0.009941782678
0.010262586468
0.010584017441
0.010906076821
0.011228765839
0.011552085725
0.011876037711
0.012200623035
0.012525842934
0.012851698649
0.013178191423
0.013505322501
0.013833093131
0.014161504564
0.014490558052
0.014820254851
0.015150596219
0.015481583414
0.015813217701
0.016145500344
0.016478432611
0.016812015771
0.017146251098
0.017481139866
0.017816683353
0.018152882838
0.018489739605
0.018827254938
0.019165430125
0.019504266456
0.019843765224
0.020183927722
0.020524755250
0.020866249107
0.021208410596
0.021551241023
0.021894741694
0.022238913921
0.022583759016
0.022929278294
0.023275473075
0.023622344678
0.023969894426
0.024318123646
0.024667033666
0.025016625816
0.025366901431
0.025717861847
0.026069508402
0.026421842438
0.026774865298
0.027128578330
0.027482982884
0.027838080309
0.028193871963
0.028550359201
0.028907543383
0.029265425873
0.029624008034
0.029983291236
0.030343276849
0.030703966246
0.031065360802
0.031427461897
0.031790270912
0.032153789231
0.032518018240
0.032882959329
0.033248613890
0.033614983319
0.033982069011
0.034349872369
0.034718394794
0.035087637694
0.035457602475
0.035828290550
0.036199703333
0.036571842240
0.036944708691
0.037318304109
0.037692629918
0.038067687547
0.038443478426
0.038820003989
0.039197265672
0.039575264914
0.039954003158
0.040333481847
0.040713702430
0.041094666357
0.041476375081
0.041858830059
0.042242032749
0.042625984613
0.043010687116
0.043396141725
0.043782349911
0.044169313147
0.044557032909
0.044945510677
0.045334747931
0.045724746157
0.046115506843
0.046507031479
0.046899321559
0.047292378579
0.047686204039
0.048080799441
0.048476166290
0.048872306095
0.049269220366
0.049666910618
0.050065378368
0.050464625135
0.050864652444
0.051265461819
0.051667054790
0.052069432889
0.052472597651
0.052876550613
0.053281293317
0.053686827306
0.054093154128
0.054500275333
0.054908192473
0.055316907105
0.055726420787
0.056136735083
0.056547851557
0.056959771777
0.057372497316
0.057786029746
0.058200370647
0.058615521598
0.059031484182
0.059448259988
0.059865850604
0.060284257625
0.060703482644
0.061123527263
0.061544393083
0.061966081710
0.062388594753
0.062811933822
0.063236100534
0.063661096506
0.064086923359
0.064513582718
0.064941076211
0.065369405467
0.065798572122
0.066228577812
0.066659424177
0.067091112862
0.067523645512
0.067957023779
0.068391249314
0.068826323775
0.069262248821
0.069699026115
0.070136657324
0.070575144116
0.071014488165
0.071454691146
0.071895754738
0.072337680625
0.072780470492
0.073224126027
0.073668648925
0.074114040879
0.074560303590
0.075007438759
0.075455448093
0.075904333299
0.076354096092
0.076804738186
0.077256261300
0.077708667157
0.078161957483
0.078616134006
0.079071198460
0.079527152581
0.079983998106
0.080441736781
0.080900370349
0.081359900562
0.081820329172
0.082281657935
0.082743888611
0.083207022964
0.083671062760
0.084136009770
0.084601865766
0.085068632527
0.085536311832
0.086004905466
0.086474415216
0.086944842874
0.087416190234
0.087888459093
0.088361651254
0.088835768522
0.089310812704
0.089786785614
0.090263689067
0.090741524883
0.091220294883
0.091700000895
0.092180644748
0.092662228276
0.093144753316
0.093628221709
0.094112635299
0.094597995933
0.095084305464
0.095571565747
0.096059778639
0.096548946004
0.097039069708
0.097530151620
0.098022193614
0.098515197566
0.099009165358
0.099504098873
0.100000000000
0.000575531528
0.000702234901
0.000918400327
0.001170261023
0.001439193718
0.001717716723
0.002002359252
0.002291296833
0.002583468952
0.002878209202
0.003175072920
0.003473749210
0.003774012491
0.004075694116
0.004378664860
0.004682823649
0.004988090048
0.005294399087
0.005601697618
0.005909941679
0.006219094550
0.006529125305
0.006840007699
0.007151719314
0.007464240890
0.007777555796
0.008091649606
0.008406509758
0.008722125276
0.009038486540
0.009355585099
0.009673413515
0.009991965228
0.010311234448
0.010631216058
0.010951905539
0.011273298894
0.011595392596
0.011918183533
0.012241668964
0.012565846482
0.012890713981
0.013216269623
0.013542511815
0.013869439187
0.014197050568
0.014525344972
0.014854321577
0.015183979719
0.015514318871
0.015845338635
0.016177038731
0.016509418992
0.016842479348
0.017176219825
0.017510640535
0.017845741670
0.018181523498
0.018517986358
0.018855130652
0.019192956845
0.019531465458
0.019870657069
0.020210532302
0.020551091833
0.020892336381
0.021234266706
0.021576883613
0.021920187940
0.022264180566
0.022608862401
0.022954234390
0.023300297509
0.023647052765
0.023994501192
0.024342643854
0.024691481840
0.025041016267
0.025391248274
0.025742179027
0.026093809714
0.026446141545
0.026799175753
0.027152913594
0.027507356341
0.027862505293
0.028218361765
0.028574927094
0.028932202635
0.029290189765
0.029648889876
0.030008304384
0.030368434719
0.030729282333
0.031090848695
0.031453135292
0.031816143631
0.032179875236
0.032544331651
0.032909514438
0.033275425176
0.033642065467
0.034009436927
0.034377541195
0.034746379927
0.035115954800
0.035486267511
0.035857319775
0.036229113331
0.036601649936
0.036974931370
0.037348959434
0.037723735950
0.038099262765
0.038475541748
0.038852574790
0.039230363809
0.039608910747
0.039988217571
0.040368286273
0.040749118875
0.041130717424
0.041513083997
0.041896220700
0.042280129668
0.042664813069
0.043050273103
0.043436512003
0.043823532034
0.044211335501
0.044599924741
0.044989302133
0.045379470092
0.045770431076
0.046162187585
0.046554742160
0.046948097392
0.047342255914
0.047737220412
0.048132993621
0.048529578328
0.048926977376
0.049325193665
0.049724230153
0.050124089861
0.050524775874
0.050926291343
0.051328639490
0.051731823609
0.052135847070
0.052540713322
0.052946425896
0.053352988410
0.053760404571
0.054168678182
0.054577813143
0.054987813457
0.055398683233
0.055810426696
0.056223048187
0.056636552170
0.057050943239
0.057466226124
0.057882405698
0.058299486983
0.058717475157
0.059136375565
0.059556193721
0.059976935327
0.060398606271
0.060821212647
0.061244760758
0.061669257133
0.062094708534
0.062521121975
0.062948504730
0.063376864349
0.063806208678
0.064236545869
0.064667884403
0.065100233104
0.065533601167
0.065967998171
0.066403434109
0.066839919410
0.067277464967
0.067716082165
0.068155782914
0.068596579681
0.069038485526
0.069481514142
0.069925679898
0.070370997881
0.070817483949
0.071265154784
0.071714027948
0.072164121948
0.072615456302
0.073068051618
0.073521929669
0.073977113488
0.074433627461
0.074891497436
0.075350750838
0.075811416796
0.076273526287
0.076737112289
0.077202209955
0.077668856799
0.078137092910
0.078606961184
0.079078507586
0.079551781437
0.080026835742
0.080503727553
0.080982518377
0.081463274637
0.081946068194
0.082430976936
0.082918085449
0.083407485784
0.083899278330
0.084393572820
0.084890489493
0.085390160437
0.085892731146
0.086398362346
0.086907232138
0.087419538517
0.087935502374
0.088455371067
0.088979422719
0.089507971408
0.090041373503
0.090580035430
0.091124423309
0.091675075003
0.092232615346
0.092797775617
0.093371418756
0.093954572478
0.094548473436
0.095154627194
0.095774891267
0.096411592787
0.097067699616
0.097747076890
0.098454885642
0.099198229114
0.099987255753
0.100837162540
0.101772120045
0.102833696904
0.104100965719
0.105744418103
0.108188698983
0.107692313420
0.000901467315
0.001028170688
0.001210089610
0.001428291656
0.001669313278
0.001925179636
0.002191227005
0.002464634873
0.002743617131
0.003026989607
0.003313934134
0.003603864942
0.003896349763
0.004191061315
0.004487746334
0.004786205137
0.005086277725
0.005387834091
0.005690767293
0.005994988413
0.006300422812
0.006607007301
0.006914687984
0.007223418576
0.007533159088
0.007843874780
0.008155535326
0.008468114134
0.008781587790
0.009095935608
0.009411139250
0.009727182412
0.010044050561
0.010361730714
0.010680211245
0.010999481728
0.011319532798
0.011640356030
0.011961943841
0.012284289395
0.012607386529
0.012931229687
0.013255813855
0.013581134513
0.013907187588
0.014233969410
0.014561476682
0.014889706440
0.015218656030
0.015548323081
0.015878705478
0.016209801348
0.016541609035
0.016874127087
0.017207354240
0.017541289402
0.017875931644
0.018211280187
0.018547334391
0.018884093748
0.019221557869
0.019559726482
0.019898599421
0.020238176619
0.020578458106
0.020919443999
0.021261134501
0.021603529892
0.021946630529
0.022290436840
0.022634949322
0.022980168533
0.023326095097
0.023672729694
0.024020073061
0.024368125989
0.024716889320
0.025066363948
0.025416550814
0.025767450904
0.026119065250
0.026471394929
0.026824441058
0.027178204797
0.027532687345
0.027887889940
0.028243813861
0.028600460422
0.028957830976
0.029315926911
0.029674749652
0.030034300660
0.030394581432
0.030755593498
0.031117338426
0.031479817815
0.031843033303
0.032206986561
0.032571679294
0.032937113244
0.033303290187
0.033670211936
0.034037880336
0.034406297274
0.034775464670
0.035145384481
0.035516058703
0.035887489370
0.036259678554
0.036632628369
0.037006340968
0.037380818544
0.037756063334
0.038132077618
0.038508863720
0.038886424010
0.039264760902
0.039643876862
0.040023774400
0.040404456081
0.040785924520
0.041168182385
0.041551232400
0.041935077345
0.042319720061
0.042705163446
0.043091410464
0.043478464141
0.043866327573
0.044255003922
0.044644496425
0.045034808390
0.045425943206
0.045817904338
0.046210695337
0.046604319838
0.046998781566
0.047394084341
0.047790232076
0.048187228786
0.048585078592
0.048983785720
0.049383354513
0.049783789428
0.050185095048
0.050587276081
0.050990337370
0.051394283897
0.051799120787
0.052204853320
0.052611486931
0.053019027220
0.053427479962
0.053836851110
0.054247146806
0.054658373389
0.055070537407
0.055483645619
0.055897705015
0.056312722821
0.056728706509
0.057145663814
0.057563602745
0.057982531596
0.058402458964
0.058823393760
0.059245345230
0.059668322969
0.060092336938
0.060517397488
0.060943515375
0.061370701784
0.061798968354
0.062228327199
0.062658790937
0.063090372716
0.063523086246
0.063956945827
0.064391966388
0.064828163518
0.065265553510
0.065704153396
0.066143980998
0.066585054972
0.067027394858
0.067471021140
0.067915955299
0.068362219878
0.068809838554
0.069258836207
0.069709239001
0.070161074470
0.070614371610
0.071069160981
0.071525474812
0.071983347124
0.072442813851
0.072903912987
0.073366684731
0.073831171656
0.074297418888
0.074765474302
0.075235388740
0.075707216246
0.076181014328
0.076656844240
0.077134771302
0.077614865245
0.078097200597
0.078581857107
0.079068920223
0.079558481617
0.080050639773
0.080545500642
0.081043178384
0.081543796191
0.082047487219
0.082554395643
0.083064677848
0.083578503783
0.084096058510
0.084617543963
0.085143180983
0.085673211650
0.086207901988
0.086747545105
0.087292464855
0.087843020140
0.088399609970
0.088962679463
0.089532727004
0.090110312815
0.090696069320
0.091290713737
0.091895063516
0.092510055427
0.093136769358
0.093776458311
0.094430586604
0.095100879122
0.095789385657
0.096498566199
0.097231405861
0.097991572580
0.098783637995
0.099613394030
0.100488318643
0.101418281629
0.102416650528
0.103502089457
0.104701606610
0.106055938121
0.107629423716
0.109528496293
0.111935297803
0.115157747470
0.114661361907
0.001184380522
0.001311083895
0.001476792610
0.001673785636
0.001893955406
0.002131044015
0.002380649550
0.002639743566
0.002906228157
0.003178622353
0.003455856473
0.003737139772
0.004021874797
0.004309601075
0.004599957336
0.004892655621
0.005187463158
0.005484189420
0.005782676719
0.006082793241
0.006384427821
0.006687485952
0.006991886710
0.007297560350
0.007604446406
0.007912492174
0.008221651492
0.008531883749
0.008843153072
0.009155427653
0.009468679199
0.009782882462
0.010098014847
0.010414056085
0.010730987951
0.011048794019
0.011367459465
0.011686970878
0.012007316116
0.012328484168
0.012650465035
0.012973249635
0.013296829707
0.013621197734
0.013946346875
0.014272270903
0.014598964146
0.014926421446
0.015254638106
0.015583609861
0.015913332835
0.016243803512
0.016575018712
0.016906975558
0.017239671458
0.017573104086
0.017907271355
0.018242171409
0.018577802602
0.018914163484
0.019251252791
0.019589069430
0.019927612471
0.020266881133
0.020606874782
0.020947592913
0.021289035153
0.021631201244
0.021974091044
0.022317704519
0.022662041735
0.023007102857
0.023352888140
0.023699397930
0.024046632657
0.024394592831
0.024743279039
0.025092691945
0.025442832283
0.025793700857
0.026145298539
0.026497626266
0.026850685036
0.027204475912
0.027559000015
0.027914258525
0.028270252679
0.028626983770
0.028984453149
0.029342662217
0.029701612433
0.030061305307
0.030421742401
0.030782925333
0.031144855768
0.031507535427
0.031870966081
0.032235149554
0.032600087719
0.032965782505
0.033332235892
0.033699449913
0.034067426652
0.034436168251
0.034805676904
0.035175954861
0.035547004427
0.035918827967
0.036291427901
0.036664806710
0.037038966935
0.037413911177
0.037789642103
0.038166162442
0.038543474991
0.038921582614
0.039300488245
0.039680194887
0.040060705621
0.040442023599
0.040824152055
0.041207094301
0.041590853731
0.041975433827
0.042360838157
0.042747070380
0.043134134252
0.043522033623
0.043910772446
0.044300354777
0.044690784782
0.045082066736
0.045474205035
0.045867204190
0.046261068842
0.046655803760
0.047051413847
0.047447904148
0.047845279853
0.048243546304
0.048642709002
0.049042773610
0.049443745964
0.049845632078
0.050248438151
0.050652170576
0.051056835950
0.051462441076
0.051868992982
0.052276498923
0.052684966394
0.053094403140
0.053504817168
0.053916216761
0.054328610485
0.054742007208
0.055156416109
0.055571846699
0.055988308829
0.056405812714
0.056824368944
0.057243988506
0.057664682805
0.058086463679
0.058509343426
0.058933334827
0.059358451165
0.059784706259
0.060212114485
0.060640690808
0.061070450816
0.061501410746
0.061933587525
0.062366998808
0.062801663013
0.063237599368
0.063674827952
0.064113369749
0.064553246696
0.064994481737
0.065437098887
0.065881123287
0.066326581283
0.066773500487
0.067221909862
0.067671839803
0.068123322227
0.068576390671
0.069031080392
0.069487428482
0.069945473989
0.070405258047
0.070866824014
0.071330217629
0.071795487173
0.072262683651
0.072731860987
0.073203076230
0.073676389792
0.074151865693
0.074629571835
0.075109580306
0.075591967703
0.076076815490
0.076564210398
0.077054244854
0.077547017460
0.078042633521
0.078541205624
0.079042854292
0.079547708691
0.080055907436
0.080567599474
0.081082945079
0.081602116965
0.082125301536
0.082652700286
0.083184531393
0.083721031510
0.084262457805
0.084809090282
0.085361234438
0.085919224303
0.086483425940
0.087054241495
0.087632113890
0.088217532290
0.088811038511
0.089413234548
0.090024791491
0.090646460111
0.091279083543
0.091923612545
0.092581124000
0.093252843515
0.093940173241
0.094644726414
0.095368370648
0.096113282742
0.096882018828
0.097677605240
0.098503657757
0.099364540349
0.100265579805
0.101213360926
0.102216140068
0.103284436154
0.104431893267
0.105676566915
0.107042881526
0.108564657958
0.110289822686
0.112287601282
0.114658708807
0.117546536788
0.121137340891
0.120640955328
0.001439074076
0.001565777449
0.001722574977
0.001905837320
0.002110746987
0.002332828650
0.002568447987
0.002814814387
0.003069827114
0.003331907343
0.003599859538
0.003872767633
0.004149920168
0.004430756938
0.004714830948
0.005001781056
0.005291312111
0.005583180330
0.005877182413
0.006173147324
0.006470930017
0.006770406587
0.007071470486
0.007374029529
0.007678003522
0.007983322339
0.008289924378
0.008597755287
0.008906766927
0.009216916505
0.009528165856
0.009840480833
0.010153830803
0.010468188214
0.010783528222
0.011099828382
0.011417068373
0.011735229761
0.012054295803
0.012374251265
0.012695082268
0.013016776155
0.013339321370
0.013662707353
0.013986924450
0.014311963827
0.014637817402
0.014964477772
0.015291938164
0.015620192375
0.015949234730
0.016279060039
0.016609663559
0.016941040958
0.017273188286
0.017606101949
0.017939778678
0.018274215512
0.018609409773
0.018945359047
0.019282061171
0.019619514211
0.019957716451
0.020296666380
0.020636362679
0.020976804207
0.021317989996
0.021659919239
0.022002591280
0.022346005609
0.022690161852
0.023035059765
0.023380699231
0.023727080248
0.024074202930
0.024422067500
0.024770674283
0.025120023706
0.025470116293
0.025820952659
0.026172533511
0.026524859643
0.026877931933
0.027231751344
0.027586318916
0.027941635770
0.028297703102
0.028654522185
0.029012094366
0.029370421064
0.029729503770
0.030089344048
0.030449943530
0.030811303920
0.031173426992
0.031536314587
0.031899968618
0.032264391065
0.032629583981
0.032995549485
0.033362289770
0.033729807096
0.034098103797
0.034467182280
0.034837045021
0.035207694576
0.035579133570
0.035951364710
0.036324390777
0.036698214634
0.037072839223
0.037448267570
0.037824502784
0.038201548064
0.038579406694
0.038958082052
0.039337577606
0.039717896924
0.040099043670
0.040481021612
0.040863834620
0.041247486674
0.041631981865
0.042017324398
0.042403518598
0.042790568912
0.043178479914
0.043567256309
0.043956902938
0.044347424782
0.044738826970
0.045131114780
0.045524293647
0.045918369170
0.046313347115
0.046709233425
0.047106034225
0.047503755829
0.047902404748
0.048301987698
0.048702511608
0.049103983629
0.049506411144
0.049909801777
0.050314163401
0.050719504153
0.051125832442
0.051533156962
0.051941486704
0.052350830969
0.052761199385
0.053172601915
0.053585048879
0.053998550965
0.054413119249
0.054828765214
0.055245500765
0.055663338253
0.056082290492
0.056502370786
0.056923592951
0.057345971335
0.057769520854
0.058194257012
0.058620195932
0.059047354391
0.059475749851
0.059905400491
0.060336325250
0.060768543865
0.061202076909
0.061636945841
0.062073173053
0.062510781917
0.062949796843
0.063390243335
0.063832148051
0.064275538871
0.064720444966
0.065166896869
0.065614926563
0.066064567557
0.066515854983
0.066968825695
0.067423518369
0.067879973619
0.068338234119
0.068798344731
0.069260352646
0.069724307537
0.070190261719
0.070658270325
0.071128391500
0.071600686602
0.072075220427
0.072552061449
0.073031282085
0.073512958974
0.073997173295
0.074484011098
0.074973563674
0.075465927959
0.075961206975
0.076459510310
0.076960954649
0.077465664357
0.077973772120
0.078485419653
0.079000758479
0.079519950799
0.080043170447
0.080570603962
0.081102451775
0.081638929536
0.082180269599
0.082726722692
0.083278559785
0.083836074209
0.084399584042
0.084969434820
0.085546002618
0.086129697569
0.086720967889
0.087320304507
0.087928246404
0.088545386789
0.089172380294
0.089809951365
0.090458904115
0.091120133943
0.091794641312
0.092483548172
0.093188117658
0.093909777874
0.094650150796
0.095411087652
0.096194712584
0.097003476967
0.097840227607
0.098708293171
0.099611594871
0.100554789753
0.101543458372
0.102584353607
0.103685734756
0.104857821926
0.106113421753
0.107468798592
0.108944896941
0.110569058922
0.112377409883
0.114418051597
0.116754949330
0.119471536546
0.122670804301
0.126464117782
0.125967732219
0.001673503513
0.001800206887
0.001951496172
0.002125442170
0.002319086902
0.002529301040
0.002753247350
0.002988540955
0.003233250700
0.003485838286
0.003745083857
0.004010017872
0.004279865085
0.004554000662
0.004831916553
0.005113195940
0.005397493831
0.005684522265
0.005974038962
0.006265838560
0.006559745774
0.006855610032
0.007153301217
0.007452706269
0.007753726451
0.008056275122
0.008360275932
0.008665661319
0.008972371285
0.009280352355
0.009589556723
0.009899941519
0.010211468199
0.010524102016
0.010837811575
0.011152568450
0.011468346847
0.011785123321
0.012102876528
0.012421587003
0.012741236971
0.013061810183
0.013383291766
0.013705668092