# vtk DataFile Version 2.0
TITLE = "Quad data"
ASCII
DATASET STRUCTURED_GRID
DIMENSIONS 65 65 1
POINTS 4225 FLOAT
0.000000 0.000000 0.000000
0.000000 0.015625 0.000000
0.000000 0.031250 0.000000
0.000000 0.046875 0.000000
0.000000 0.062500 0.000000
0.000000 0.078125 0.000000
0.000000 0.093750 0.000000
0.000000 0.109375 0.000000
0.000000 0.125000 0.000000
0.000000 0.140625 0.000000
0.000000 0.156250 0.000000
0.000000 0.171875 0.000000
0.000000 0.187500 0.000000
0.000000 0.203125 0.000000
0.000000 0.218750 0.000000
0.000000 0.234375 0.000000
0.000000 0.250000 0.000000
0.000000 0.265625 0.000000
0.000000 0.281250 0.000000
0.000000 0.296875 0.000000
0.000000 0.312500 0.000000
0.000000 0.328125 0.000000
0.000000 0.343750 0.000000
0.000000 0.359375 0.000000
0.000000 0.375000 0.000000
0.000000 0.390625 0.000000
0.000000 0.406250 0.000000
0.000000 0.421875 0.000000
0.000000 0.437500 0.000000
0.000000 0.453125 0.000000
0.000000 0.468750 0.000000
0.000000 0.484375 0.000000
0.000000 0.500000 0.000000
0.000000 0.515625 0.000000
0.000000 0.531250 0.000000
0.000000 0.546875 0.000000
0.000000 0.562500 0.000000
0.000000 0.578125 0.000000
0.000000 0.593750 0.000000
0.000000 0.609375 0.000000
0.000000 0.625000 0.000000
0.000000 0.640625 0.000000
0.000000 0.656250 0.000000
0.000000 0.671875 0.000000
0.000000 0.687500 0.000000
0.000000 0.703125 0.000000
0.000000 0.718750 0.000000
0.000000 0.734375 0.000000
0.000000 0.750000 0.000000
0.000000 0.765625 0.000000
0.000000 0.781250 0.000000
0.000000 0.796875 0.000000
0.000000 0.812500 0.000000
0.000000 0.828125 0.000000
0.000000 0.843750 0.000000
0.000000 0.859375 0.000000
0.000000 0.875000 0.000000
0.000000 0.890625 0.000000
0.000000 0.906250 0.000000
0.000000 0.921875 0.000000
0.000000 0.937500 0.000000
0.000000 0.953125 0.000000
0.000000 0.968750 0.000000
0.000000 0.984375 0.000000
0.000000 1.000000 0.000000
0.015625 0.000000 0.000000
0.015625 0.015625 0.000000
0.015625 0.031250 0.000000
0.015625 0.046875 0.000000
0.015625 0.062500 0.000000
0.015625 0.078125 0.000000
0.015625 0.093750 0.000000
0.015625 0.109375 0.000000
0.015625 0.125000 0.000000
0.015625 0.140625 0.000000
0.015625 0.156250 0.000000
0.015625 0.171875 0.000000
0.015625 0.187500 0.000000
0.015625 0.203125 0.000000
0.015625 0.218750 0.000000
0.015625 0.234375 0.000000
0.015625 0.250000 0.000000
0.015625 0.265625 0.000000
0.015625 0.281250 0.000000
0.015625 0.296875 0.000000
0.015625 0.312500 0.000000
0.015625 0.328125 0.000000
0.015625 0.343750 0.000000
0.015625 0.359375 0.000000
0.015625 0.375000 0.000000
0.015625 0.390625 0.000000
0.015625 0.406250 0.000000
0.015625 0.421875 0.000000
0.015625 0.437500 0.000000
0.015625 0.453125 0.000000
0.015625 0.468750 0.000000
0.015625 0.484375 0.000000
0.015625 0.500000 0.000000
0.015625 0.515625 0.000000
0.015625 0.531250 0.000000
0.015625 0.546875 0.000000
0.015625 0.562500 0.000000
0.015625 0.578125 0.000000
0.015625 0.593750 0.000000
0.015625 0.609375 0.000000
0.015625 0.625000 0.000000
0.015625 0.640625 0.000000
0.015625 0.656250 0.000000
0.015625 0.671875 0.000000
0.015625 0.687500 0.000000
0.015625 0.703125 0.000000
0.015625 0.718750 0.000000
0.015625 0.734375 0.000000
0.015625 0.750000 0.000000
0.015625 0.765625 0.000000
0.015625 0.781250 0.000000
0.015625 0.796875 0.000000
0.015625 0.812500 0.000000
0.015625 0.828125 0.000000
0.015625 0.843750 0.000000
0.015625 0.859375 0.000000
0.015625 0.875000 0.000000
0.015625 0.890625 0.000000
0.015625 0.906250 0.000000
0.015625 0.921875 0.000000
0.015625 0.937500 0.000000
0.015625 0.953125 0.000000
0.015625 0.968750 0.000000
0.015625 0.984375 0.000000
0.015625 1.000000 0.000000
0.031250 0.000000 0.000000
0.031250 0.015625 0.000000
0.031250 0.031250 0.000000
0.031250 0.046875 0.000000
0.031250 0.062500 0.000000
0.031250 0.078125 0.000000
0.031250 0.093750 0.000000
0.031250 0.109375 0.000000
0.031250 0.125000 0.000000
0.031250 0.140625 0.000000
0.031250 0.156250 0.000000
0.031250 0.171875 0.000000
0.031250 0.187500 0.000000
0.031250 0.203125 0.000000
0.031250 0.218750 0.000000
0.031250 0.234375 0.000000
0.031250 0.250000 0.000000
0.031250 0.265625 0.000000
0.031250 0.281250 0.000000
0.031250 0.296875 0.000000
0.031250 0.312500 0.000000
0.031250 0.328125 0.000000
0.031250 0.343750 0.000000
0.031250 0.359375 0.000000
0.031250 0.375000 0.000000
0.031250 0.390625 0.000000
0.031250 0.406250 0.000000
0.031250 0.421875 0.000000
0.031250 0.437500 0.000000
0.031250 0.453125 0.000000
0.031250 0.468750 0.000000
0.031250 0.484375 0.000000
0.031250 0.500000 0.000000
0.031250 0.515625 0.000000
0.031250 0.531250 0.000000
0.031250 0.546875 0.000000
0.031250 0.562500 0.000000
0.031250 0.578125 0.000000
0.031250 0.593750 0.000000
0.031250 0.609375 0.000000
0.031250 0.625000 0.000000
0.031250 0.640625 0.000000
0.031250 0.656250 0.000000
0.031250 0.671875 0.000000
0.031250 0.687500 0.000000
0.031250 0.703125 0.000000
0.031250 0.718750 0.000000
0.031250 0.734375 0.000000
0.031250 0.750000 0.000000
0.031250 0.765625 0.000000
0.031250 0.781250 0.000000
0.031250 0.796875 0.000000
0.031250 0.812500 0.000000
0.031250 0.828125 0.000000
0.031250 0.843750 0.000000
0.031250 0.859375 0.000000
0.031250 0.875000 0.000000
0.031250 0.890625 0.000000
0.031250 0.906250 0.000000
0.031250 0.921875 0.000000
0.031250 0.937500 0.000000
0.031250 0.953125 0.000000
0.031250 0.968750 0.000000
0.031250 0.984375 0.000000
0.031250 1.000000 0.000000
0.046875 0.000000 0.000000
0.046875 0.015625 0.000000
0.046875 0.031250 0.000000
0.046875 0.046875 0.000000
0.046875 0.062500 0.000000
0.046875 0.078125 0.000000
0.046875 0.093750 0.000000
0.046875 0.109375 0.000000
0.046875 0.125000 0.000000
0.046875 0.140625 0.000000
0.046875 0.156250 0.000000
0.046875 0.171875 0.000000
0.046875 0.187500 0.000000
0.046875 0.203125 0.000000
0.046875 0.218750 0.000000
0.046875 0.234375 0.000000
0.046875 0.250000 0.000000
0.046875 0.265625 0.000000
0.046875 0.281250 0.000000
0.046875 0.296875 0.000000
0.046875 0.312500 0.000000
0.046875 0.328125 0.000000
0.046875 0.343750 0.000000
0.046875 0.359375 0.000000
0.046875 0.375000 0.000000
0.046875 0.390625 0.000000
0.046875 0.406250 0.000000
0.046875 0.421875 0.000000
0.046875 0.437500 0.000000
0.046875 0.453125 0.000000
0.046875 0.468750 0.000000
0.046875 0.484375 0.000000
0.046875 0.500000 0.000000
0.046875 0.515625 0.000000
0.046875 0.531250 0.000000
0.046875 0.546875 0.000000
0.046875 0.562500 0.000000
0.046875 0.578125 0.000000
0.046875 0.593750 0.000000
0.046875 0.609375 0.000000
0.046875 0.625000 0.000000
0.046875 0.640625 0.000000
0.046875 0.656250 0.000000
0.046875 0.671875 0.000000
0.046875 0.687500 0.000000
0.046875 0.703125 0.000000
0.046875 0.718750 0.000000
0.046875 0.734375 0.000000
0.046875 0.750000 0.000000
0.046875 0.765625 0.000000
0.046875 0.781250 0.000000
0.046875 0.796875 0.000000
0.046875 0.812500 0.000000
0.046875 0.828125 0.000000
0.046875 0.843750 0.000000
0.046875 0.859375 0.000000
0.046875 0.875000 0.000000
0.046875 0.890625 0.000000
0.046875 0.906250 0.000000
0.046875 0.921875 0.000000
0.046875 0.937500 0.000000
0.046875 0.953125 0.000000
0.046875 0.968750 0.000000
0.046875 0.984375 0.000000
0.046875 1.000000 0.000000
0.062500 0.000000 0.000000
0.062500 0.015625 0.000000
0.062500 0.031250 0.000000
0.062500 0.046875 0.000000
0.062500 0.062500 0.000000
0.062500 0.078125 0.000000
0.062500 0.093750 0.000000
0.062500 0.109375 0.000000
0.062500 0.125000 0.000000
0.062500 0.140625 0.000000
0.062500 0.156250 0.000000
0.062500 0.171875 0.000000
0.062500 0.187500 0.000000
0.062500 0.203125 0.000000
0.062500 0.218750 0.000000
0.062500 0.234375 0.000000
0.062500 0.250000 0.000000
0.062500 0.265625 0.000000
0.062500 0.281250 0.000000
0.062500 0.296875 0.000000
0.062500 0.312500 0.000000
0.062500 0.328125 0.000000
0.062500 0.343750 0.000000
0.062500 0.359375 0.000000
0.062500 0.375000 0.000000
0.062500 0.390625 0.000000
0.062500 0.406250 0.000000
0.062500 0.421875 0.000000
0.062500 0.437500 0.000000
0.062500 0.453125 0.000000
0.062500 0.468750 0.000000
0.062500 0.484375 0.000000
0.062500 0.500000 0.000000
0.062500 0.515625 0.000000
0.062500 0.531250 0.000000
0.062500 0.546875 0.000000
0.062500 0.562500 0.000000
0.062500 0.578125 0.000000
0.062500 0.593750 0.000000
0.062500 0.609375 0.000000
0.062500 0.625000 0.000000
0.062500 0.640625 0.000000
0.062500 0.656250 0.000000
0.062500 0.671875 0.000000
0.062500 0.687500 0.000000
0.062500 0.703125 0.000000
0.062500 0.718750 0.000000
0.062500 0.734375 0.000000
0.062500 0.750000 0.000000
0.062500 0.765625 0.000000
0.062500 0.781250 0.000000
0.062500 0.796875 0.000000
0.062500 0.812500 0.000000
0.062500 0.828125 0.000000
0.062500 0.843750 0.000000
0.062500 0.859375 0.000000
0.062500 0.875000 0.000000
0.062500 0.890625 0.000000
0.062500 0.906250 0.000000
0.062500 0.921875 0.000000
0.062500 0.937500 0.000000
0.062500 0.953125 0.000000
0.062500 0.968750 0.000000
0.062500 0.984375 0.000000
0.062500 1.000000 0.000000
0.078125 0.000000 0.000000
0.078125 0.015625 0.000000
0.078125 0.031250 0.000000
0.078125 0.046875 0.000000
0.078125 0.062500 0.000000
0.078125 0.078125 0.000000
0.078125 0.093750 0.000000
0.078125 0.109375 0.000000
0.078125 0.125000 0.000000
0.078125 0.140625 0.000000
0.078125 0.156250 0.000000
0.078125 0.171875 0.000000
0.078125 0.187500 0.000000
0.078125 0.203125 0.000000
0.078125 0.218750 0.000000
0.078125 0.234375 0.000000
0.078125 0.250000 0.000000
0.078125 0.265625 0.000000
0.078125 0.281250 0.000000
0.078125 0.296875 0.000000
0.078125 0.312500 0.000000
0.078125 0.328125 0.000000
0.078125 0.343750 0.000000
0.078125 0.359375 0.000000
0.078125 0.375000 0.000000
0.078125 0.390625 0.000000
0.078125 0.406250 0.000000
0.078125 0.421875 0.000000
0.078125 0.437500 0.000000
0.078125 0.453125 0.000000
0.078125 0.468750 0.000000
0.078125 0.484375 0.000000
0.078125 0.500000 0.000000
0.078125 0.515625 0.000000
0.078125 0.531250 0.000000
0.078125 0.546875 0.000000
0.078125 0.562500 0.000000
0.078125 0.578125 0.000000
0.078125 0.593750 0.000000
0.078125 0.609375 0.000000
0.078125 0.625000 0.000000
[...]
POINT_DATA 4225
SCALARS phi FLOAT 1
LOOKUP_TABLE default
0.000000000000
0.001209008793
0.002427499960
0.003655547871
0.004893227482
0.006140614334
0.007397784562
0.008664814899
0.009941782678
0.011228765839
0.012525842934
0.013833093131
0.015150596219
0.016478432611
0.017816683353
0.019165430125
0.020524755250
0.021894741694
0.023275473075
0.024667033666
0.026069508402
0.027482982884
0.028907543383
0.030343276849
0.031790270912
0.033248613890
0.034718394794
0.036199703333
0.037692629918
0.039197265672
0.040713702430
0.042242032749
0.043782349911
0.045334747931
0.046899321559
0.048476166290
0.050065378368
0.051667054790
0.053281293317
0.054908192473
0.056547851557
0.058200370647
0.059865850604
0.061544393083
0.063236100534
0.064941076211
0.066659424177
0.068391249314
0.070136657324
0.071895754738
0.073668648925
0.075455448093
0.077256261300
0.079071198460
0.080900370349
0.082743888611
0.084601865766
0.086474415216
0.088361651254
0.090263689067
0.092180644748
0.094112635299
0.096059778639
0.098022193614
0.100000000000
0.001763472061
0.002270285553
0.003160334149
0.004206215850
0.005329306157
0.006498190602
0.007698441472
0.008922589140
0.010166381616
0.011427219141
0.012703426575
0.013993883294
0.015297820323
0.016614702116
0.017944154145
0.019285916701
0.020639814423
0.022005735654
0.023383618159
0.024773439097
0.026175207923
0.027588961365
0.029014759920
0.030452685502
0.031902839976
0.033365344439
0.034840339117
0.036327983845
0.037828459077
0.039341967450
0.040868735915
0.042409018500
0.043963099785
0.045531299192
0.047113976253
0.048711537035
0.050324441988
0.051953215518
0.053598457712
0.055260858760
0.056941216752
0.058640459805
0.060359673733
0.062100136915
0.063863364617
0.065651165846
0.067465717075
0.069309658958
0.071186224887
0.073099414453
0.075054231424
0.077057016576
0.079115923481
0.081241616174
0.083448322942
0.085755484768
0.088190444198
0.090793058635
0.093624118302
0.096781905586
0.100437858295
0.104921929010
0.110952041799
0.120328159632
0.118342617380
0.002594832469
0.003101645961
0.003856541293
0.004775656213
0.005799333205
0.006892387106
0.008034408082
0.009213201656
0.010421171439
0.011653386319
0.012906527956
0.014178296487
0.015467061027
0.016771645891
0.018091195044
0.019425083422
0.020772857329
0.022134193468
0.023508870284
0.024896747671
0.026297752509
0.027711868386
0.029139128408
0.030579610354
0.032033433693
0.033500758118
0.034981783409
0.036476750477
0.037985943572
0.039509693625
0.041048382826
0.042602450522
0.044172400631
0.045758810795
0.047362343597
0.048983760240
0.050623937221
0.052283886665
0.053964781198
0.055667984477
0.057395088835
0.059147961979
0.060928805274
0.062740227017
0.064585335316
0.066467856879
0.068392290456
0.070364107287
0.072390016176
0.074478318962
0.076639394602
0.078886370036
0.081236068362
0.083710379215
0.086338290233
0.089158986745
0.092226738820
0.095618894527
0.099449488958
0.103893393475
0.109230793654
0.115930795403
0.124804133169
0.137232541009
0.135246998757
0.003303341910
0.003810155403
0.004499706397
0.005336420779
0.006282738732
0.007309750389
0.008397263210
0.009531535149
0.010703185962
0.011905717860
0.013134546613
0.014386379503
0.015658814320
0.016950077052
0.018258847077
0.019584138414
0.020925217571
0.022281545808
0.023652738040
0.025038533336
0.026438773678
0.027853388760
0.029282385304
0.030725839861
0.032183894417
0.033656754302
0.035144688142
0.036648029645
0.038167181188
0.039702619205
0.041254901489
0.042824676595
0.044412695608
0.046019826664
0.047647072700
0.049295593067
0.050966729827
0.052662039768
0.054383333469
0.056132723137
0.057912681452
0.059726114322
0.061576451387
0.063467759366
0.065404885071
0.067393637383
0.069441020904
0.071555539032
0.073747591450
0.076030001873
0.078418728228
0.080933832590
0.083600827616
0.086452579103
0.089532046537
0.092896312017
0.096622628176
0.100817679008
0.105631986466
0.111282448843
0.118086986677
0.126514043022
0.137237951048
0.151143707019
0.149158164767
0.003938783312
0.004445596804
0.005098714895
0.005880893397
0.006768906810
0.007741184677
0.008780311791
0.009873047754
0.011009561522
0.012182594430
0.013386770133
0.014618079018
0.015873507792
0.017150776903
0.018448154558
0.019764324283
0.021098289894
0.022449306750
0.023816831695
0.025200486495
0.026600031149
0.028015344606
0.029446411157
0.030893311269
0.032356216061
0.033835384839
0.035331165338
0.036843996473
0.038374413530
0.039923055842
0.041490677102
0.043078158578
0.044686525602
0.046316967853
0.047970864090
0.049649812212
0.051355665715
0.053090577971
0.054857056099
0.056658026708
0.058496916476
0.060377751357
0.062305279422
0.064285123864
0.066323974889
0.068429832142
0.070612313462
0.072883051539
0.075256208342
0.077749149073
0.080383334750
0.083185517981
0.086189364242
0.089437676997
0.092985487940
0.096904394138
0.101288690678
0.106264052638
0.111999691638
0.118724783429
0.126748749930
0.136480709440
0.148432062581
0.163163140112
0.161177597860
0.004528138336
0.005034951828
0.005665334299
0.006409922632
0.007253953346
0.008181751897
0.009179165217
0.010234402043
0.011338037386
0.012482690144
0.013662630657
0.014873422724
0.016111630554
0.017374590552
0.018660237795
0.019966975513
0.021293577298
0.022639113921
0.024002898593
0.025384446119
0.026783442623
0.028199723435
0.029633257395
0.031084136340
0.032552568895
0.034038877969
0.035543501596
0.037066996890
0.038610047098
0.040173471800
0.041758240485
0.043365489838
0.044996545227
0.046652947036
0.048336482681
0.050049225389
0.051793581102
0.053572345230
0.055388771442
0.057246655280
0.059150436151
0.061105322252
0.063117444334
0.065194045955
0.067343720248
0.069576706432
0.071905263619
0.074344145415
0.076911206968
0.079628187418
0.082521726260
0.085624693670
0.088977944104
0.092632641436
0.096653353026
0.101122165080
0.106144115098
0.111854218748
0.118426163863
0.126082077833
0.135101107451
0.145821041962
0.158621248055
0.173868968795
0.171883426543
0.005088161780
0.005594975272
0.006209932739
0.006927479601
0.007737852132
0.008629634905
0.009591594813
0.010613650526
0.011687220328
0.012805221293
0.013961911358
0.015152683035
0.016373861491
0.017622528030
0.018896374248
0.020193585191
0.021512747422
0.022852777506
0.024212866861
0.025592439625
0.026991120875
0.028408713144
0.029845179700
0.031300633429
0.032775330506
0.034269668296
0.035784187124
0.037319575739
0.038876680467
0.040456518173
0.042060293308
0.043689419467
0.045345546057
0.047030590833
0.048746779321
0.050496692387
0.052283323551
0.054110148050
0.055981206178
0.057901204077
0.059875635999
0.061910933140
0.064014645535
0.066195665339
0.068464502202
0.070833624551
0.073317884756
0.075935051520
0.078706479981
0.081657959280
0.084820789206
0.088233152400
0.091941866092
0.096004615800
0.100492787665
0.105495013507
0.111121495903
0.117509034364
0.124826325609
0.133278393931
0.143107709117
0.154587577546
0.168001330148
0.183601163970
0.181615621718
0.005630549055
0.006137362548
0.006741198836
0.007438540120
0.008222670811
0.009085160824
0.010017145947
0.011010178537
0.012056676664
0.013150089466
0.014284894631
0.015456512149
0.016661186256
0.017895863917
0.019158083395
0.020445878091
0.021757696516
0.023092337275
0.024448897205
0.025826730725
0.027225418586
0.028644744547
0.030084678729
0.031545366735
0.033027123841
0.034530433768
0.036055951775
0.037604511928
0.039177138603
0.040775062412
0.042399740884
0.044052884427
0.045736488240
0.047452871091
0.049204722085
0.050995156849
0.052827784942
0.054706790689
0.056637030214
0.058624148136
0.060674718208
0.062796413310
0.064998211539
0.067290646909
0.069686115356
0.072199249563
0.074847379640
0.077651101080
0.080634976827
0.083828406710
0.087266704714
0.090992431932
0.095057038646
0.099522869123
0.104465569660
0.109976899976
0.116167855145
0.123171819271
0.131147135273
0.140277925459
0.150771224472
0.162847675446
0.176722853294
0.192578148209
0.190592605957
0.006164327531
0.006671141024
0.007266594416
0.007948354109
0.008711639476
0.009550113771
0.010456760330
0.011424560312
0.012446929707
0.013517951347
0.014632461828
0.015786048822
0.016975000205
0.018196232188
0.019447212624
0.020725888234
0.022030619850
0.023360127121
0.024713442734
0.026089875505
0.027488981484
0.028910542165
0.030354549024
0.031821193698
0.033310863332
0.034824140739
0.036361809182
0.037924861759
0.039514515488
0.041132230350
0.042779733726
0.044459050792
0.046172541675
0.047922946331
0.049713438435
0.051547689804
0.053429947290
0.055365124509
0.057358911306
0.059417904550
0.061549764663
0.063763403291
0.066069208822
0.068479317949
0.071007943383
0.073671770076
0.076490435008
0.079487108660
0.082689199677
0.086129207539
0.089845750659
0.093884797823
0.098301126761
0.103160020517
0.108539182601
0.114530794068
0.121243532233
0.128804199995
0.137358356454
0.147068995575
0.158111957958
0.170666593184
0.184900653753
0.200950112481
0.198964570229
0.006697095900
0.007203909393
0.007792831705
0.008462265778
0.009208710516
0.010027317394
0.010912492365
0.011858415353
0.012859422400
0.013910249179
0.015006161306
0.016143003891
0.017317199441
0.018525716387
0.019766023549
0.021036040308
0.022334088202
0.023658847058
0.025009317063
0.026384787273
0.027784810477
0.029209184153
0.030657937129
0.032131321607
0.033629810271
0.035154098301
0.036705110228
0.038284011699
0.039892226333
0.041531458022
0.043203719151
0.044911365407
0.046657138023
0.048444214538
0.050276269390
0.052157545988
0.054092942259
0.056088112085
0.058149585593
0.060284911868
0.062502828399
0.064813462499
0.067228570965
0.069761825529
0.072429153074
0.075249141203
0.078243521490
0.081437744395
0.084861661182
0.088550328622
0.092544950906
0.096893968372
0.101654291895
0.106892661073
0.112687067881
0.119128127568
0.126320186167
0.134381822113
0.143445230616
0.153653801597
0.165157092763
0.178102513210
0.192623596718
0.208825952158
0.206840409906
0.007235739870
0.007742553363
0.008326259089
0.008985743723
0.009718384992
0.010520413052
0.011387329959
0.012314302758
0.013296481686
0.014329228486
0.015408261470
0.016529733991
0.017690264908
0.018886937544
0.020117279940
0.021379235611
0.022671130963
0.023991643255
0.025339771422
0.026714811004
0.028116333799
0.029544172459
0.030998410077
0.032479374701
0.033987638746
0.035524023281
0.037089607286
0.038685742021
0.040314070825
0.041976554718
0.043675504401
0.045413619350
0.047194034930
0.049020378646
0.050896836910
0.052828234000
0.054820125202
0.056878906570
0.059011944162
0.061227726208
0.063536042262
0.065948194168
0.068477244443
0.071138308662
0.073948899298
0.076929329487
0.080103185854
0.083497879976
0.087145287540
0.091082482423
0.095352568576
0.100005604347
0.105099599566
0.110701542278
0.116888375912
0.123747794819
0.131378654001
0.139890699244
0.149403229272
0.160042233740
0.171935570942
0.185205948450
0.199961944648
0.216288080280
0.214302538028
0.007786891895
0.008293705387
0.008873164933
0.009524489364
0.010245680914
0.011033768276
0.011885104487
0.012795664356
0.013761303486
0.014777960842
0.015841802406
0.016949312772
0.018097345515
0.019283143590
0.020504339663
0.021758944204
0.023045327166
0.024362197315
0.025708581930
0.027083808638
0.028487490444
0.029919514608
0.031380035729
0.032869473273
0.034388513721
0.035938117482
0.037519530809
0.039134302968
0.040784309053
0.042471778920
0.044199332867
0.045970024818
0.047787393981
0.049655526121
0.051579125829
0.053563601457
0.055615164678
0.057740946983
0.059949135851
0.062249133764
0.064651743747
0.067169385668
0.069816348086
0.072609080995
0.075566535264
0.078710554850
0.082066327738
0.085662900805
0.089533761939
0.093717489204
0.098258460659
0.103207608487
0.108623185719
0.114571491212
0.121127466906
0.128375039585
0.136407028705
0.145324388202
0.155234507843
0.166248295048
0.178475831153
0.192020593158
0.206972582364
0.223401170803
0.221415628551
0.008357260042
0.008864073535
0.009440026895
0.010084575667
0.010796179481
0.011572470804
0.012410470785
0.013306815823
0.014257966554
0.015260382490
0.016310656108
0.017405607668
0.018542346321
0.019718304660
0.020931253872
0.022179305730
0.023460906501
0.024774826592
0.026120148766
0.027496256890
0.028902826606
0.030339818827
0.031807476711
0.033306326572
0.034837183072
0.036401159033
0.037999680196
0.039634505311
0.041307752006
0.043021928999
0.044779975293
0.046585307203
0.048441874138
0.050354224330
0.052327581849
0.054367936513
0.056482148555
0.058678070223
0.060964686774
0.063352279714
0.065852615470
0.068479163007
0.071247344254
0.074174821350
0.077281824757
0.080591525989
0.084130457830
0.087928983343
0.092021812086
0.096448557422
0.101254321778
0.106490286378
0.112214267364
0.118491180441
0.125393330792
0.133000414799
0.141399087996
0.150681926666
0.160945600801
0.172288102543
0.184804959663
0.198584527776
0.213702697731
0.230217634211
0.228232091959
0.008953889772
0.009460703265
0.010033730371
0.010672600770
0.011376118209
0.012142381036
0.012968941766
0.013852981442
0.014791478092
0.015781355120
0.016819602449
0.017903368805
0.019030027347
0.020197218824
0.021402877127
0.022645241982
0.023922862917
0.025234597919
0.026579609430
0.027957359735
0.029367607221
0.030810404624
0.032286100087
0.033795341663
0.035339085766
0.036918610041
0.038535531086
0.040191827507
0.041889868820
0.043632450814
0.045422838072
0.047264814474
0.049162742663
0.051121633581
0.053147227404
0.055246087356
0.057425708158
0.059694641026
0.062062637430
0.064540814024
0.067141841357
0.069880159158
0.072772220997
0.075836771055
0.079095155307
0.082571668697
0.086293938469
0.090293341633
0.094605451134
0.099270500292
0.104333847982
0.109846417300
0.115865067627
0.122452843987
0.129679028673
0.137618900109
0.146353086151
0.155966389795
0.166545973744
0.178178828390
0.190948527158
0.204931399260
0.220192412844
0.236781226305
0.234795684053
0.009584394066
0.010091207558
0.010661773687
0.011295853830
0.011992516931
0.012750227786
0.013566967311
0.014440368351
0.015367851945
0.016346752669
0.017374426098
0.018448335530
0.019566118155
0.020725632807
0.021924992436
0.023162584707
0.024437083997
0.025747457643
0.027092968848
0.028473178184
0.029887945210
0.031337431398
0.032822105314
0.034342750788
0.035900478724
0.037496743095
0.039133361669
0.040812542007
0.042536913313
0.044309564773
0.046134091126
0.048014646277
0.049956005904
0.051963640136
0.054043797529
0.056203601715
0.058451162260
0.060795701442
0.063247698782
0.065819055285
0.068523279426
0.071375696857
0.074393685671
0.077596938653
0.081007753291
0.084651349168
0.088556210653
0.092754450249
0.097282184349
0.102179908171
0.107492849966
0.113271276074
0.119570707840
0.126451999173
0.133981210534
0.142229203157
0.151270869752
0.161183919497
0.172047152254
0.183938196391
0.196930751236
0.211091468124
0.226476711513
0.243129538348
0.241143996096
0.010257173504
0.010763986997
0.011332473123
0.011962495371
0.012653331547
0.013403739934
0.014212051619
0.015076277633
0.015994219896
0.016963576986
0.017982038583
0.019047365294
0.020157452964
0.021310382272
0.022504455463
0.023738222592
0.025010499719
0.026320381406
0.027667249581
0.029050780535
0.030470951512
0.031928048122
0.033422673528
0.034955760269
0.036528585406
0.038142789643
0.039800401008
0.041503863713
0.043256072804
0.045060415257
0.046920818284
0.048841805616
0.050828562713
0.052887011870
0.055023898358
0.057246888825
0.059564683272
0.061987142043
0.064525429290
0.067192174405
0.070001652838
0.072969987523
0.076115371792
0.079458314080
0.083021903787
0.086832096340
0.090918013571
0.095312252873
0.100051195017
0.105175295884
0.110729341460
0.116762638334
0.123329103748
0.130487210482
0.138299733655
0.146833240555
0.156157263677
0.166343104630
0.177462236555
0.189584308630
0.202774809274
0.217092511535
0.232586894575
0.249295791705
0.247310249453
0.010981640847
0.011488454340
0.012055178054
0.012681756457
0.013367635151
0.014111811488
0.014912906689
0.015769251482
0.016678977167
0.017640105100
0.018650629360
0.019708589371
0.020812131032
0.021959556336
0.023149362440
0.024380271745
0.025651254759
0.026961547620
0.028310665979
0.029698416822
0.031124909585
0.032590567724
0.034096141738
0.035642724503
0.037231769665
0.038865113792
0.040545002913
0.042274124093
0.044055642683
0.045893245912
0.047791193562
0.049754376484
0.051788383820
0.053899579836
0.056095191368
0.058383406926
0.060773488567
0.063275897663
0.065902435656
0.068666400828
0.071582761904
0.074668349023
0.077942062082
0.081425095759
0.085141179449
0.089116828870
0.093381604156
0.097968366620
0.102913523072
0.108257242397
0.114043624211
0.120320793701
0.127140890747
0.134559915612
0.142637388931
0.151435781939
0.161019675925
0.171454620089
0.182805676641
0.195135672633
0.208503218915
0.222960604143
0.238551717740
0.255310188593
0.253324646341
0.011768461075
0.012275274567
0.012840504852
0.013464161984
0.014145828859
0.014884700698
0.015679642308
0.016529257442
0.017431964233
0.018386071262
0.019389849904
0.020441599993
0.021539707150
0.022682691296
0.023869246699
0.025098274506
0.026368909037
0.027680539241
0.029032826753
0.030425721869
0.031859478680
0.033334670445
0.034852206176
0.036413349280
0.038019739049
0.039673415676
0.041376849498
0.043132975083
0.044945230847
0.046817604836
0.048754687392
0.050761731426
0.052844721080
0.055010449589
0.057266607194
0.059621879992
0.062086060566
0.064670171259
0.067386600788
0.070249254795
0.073273720604
0.076477446071
0.079879931819
0.083502935283
0.087370683938
0.091510093500
0.095950985054
0.100726292568
0.105872249319
0.111428538213
0.117438386997
0.123948585081
0.131009394492
0.138674324011
0.146999733653
0.156044237577
0.165867878663
0.176531058939
0.188093227882
0.200611355707
0.214138249825
0.228720806133
0.244398316862
0.261200975592
0.259215433340
0.012629816148
0.013136629641
0.013700597548
0.014321784102
0.014999886473
0.015734266117
0.016523994980
0.017367912389
0.018264688166
0.019212887697
0.020211035389
0.021257673912
0.022351417557
0.023490998975
0.024675309278
0.025903432004
0.027174671829
0.028488579074
0.029844971143
0.031243952029
0.032685930958
0.034171641169
0.035702159749
0.037278929336
0.038903782475
0.040578969309
0.042307189302
0.044091627615
0.045935996808
0.047844584481
0.049822307540
0.051874773752
0.054008351274
0.056230246876
0.058548593551
0.060972548210
0.063512400076
0.066179690338
0.068987343441
0.071949810160
0.075083222265
0.078405558096
0.081936817726
0.085699205477
0.089717316474
0.094018322410
0.098632149949
0.103591642974
0.108932697355
0.114694354001
0.120918832887
0.127651487641
0.134940657631
0.142837392744
0.151395026011
0.160668571745
0.170713932985
0.181586912538
0.193342037380
0.206031226283
0.219702353796
0.234397787321
0.250152993624
0.266995321739
0.265009779487
0.013579703109
0.014086516601
0.014649423107
0.015268532456
0.015943638454
0.016674244216
0.017459599992
0.018298750452
0.019190588027
0.020133908972
0.021127469263
0.022170038064
0.023260447195
0.024397635774
0.025580689754
0.026808876590
0.028081675585
0.029398804694
0.030760244684
0.032166261578
0.033617428323
0.035114646574
0.036659169434
0.038252625941
0.039897048022
0.041594900627
0.043349115676
0.045163130463
0.047040931139
0.048987101873
0.051006880314
0.053106219949
0.055291859962
0.057571403192
0.059953402724
0.062447457630
0.065064318257
0.067816001335
0.070715914967
0.073778993275
0.077021840090
0.080462880542
0.084122518717
0.088023298685
0.092190065068
0.096650117997
0.101433355643
0.106572395640
0.112102664581
0.118062442461
0.124492846677
0.131437738100
0.138943530246
0.147058882106
0.155834256334
0.165321327873
0.175572234359
0.186638669240
0.198570831506
0.211416261832
0.225218612255
0.240016413150
0.255841914028
0.272720080421
0.270734538169
0.014634274215
0.015141087708
0.015703109589
0.016320488750
0.016993101955
0.017720574641
0.018502312353
0.019337540535
0.020225350081
0.021164746037
0.022154697091
0.023194183940
0.024282245106
0.025418019351
0.026600784284
0.027829991196
0.029105296447
0.030426589962
0.031794021531
0.033208025673
0.034669345871
0.036179058955
0.037738600403
0.039349791297
0.041014867606
0.042736512477
0.044517892145
0.046362696076
0.048275181913