# vtk DataFile Version 2.0
TITLE = "Quad data"
ASCII
DATASET STRUCTURED_GRID
DIMENSIONS 17 17 1
POINTS 289 FLOAT
0.000000 0.000000 0.000000
0.000000 0.062500 0.000000
0.000000 0.125000 0.000000
0.000000 0.187500 0.000000
0.000000 0.250000 0.000000
0.000000 0.312500 0.000000
0.000000 0.375000 0.000000
0.000000 0.437500 0.000000
0.000000 0.500000 0.000000
0.000000 0.562500 0.000000
0.000000 0.625000 0.000000
0.000000 0.687500 0.000000
0.000000 0.750000 0.000000
0.000000 0.812500 0.000000
0.000000 0.875000 0.000000
0.000000 0.937500 0.000000
0.000000 1.000000 0.000000
0.062500 0.000000 0.000000
0.062500 0.062500 0.000000
0.062500 0.125000 0.000000
0.062500 0.187500 0.000000
0.062500 0.250000 0.000000
0.062500 0.312500 0.000000
0.062500 0.375000 0.000000
0.062500 0.437500 0.000000
0.062500 0.500000 0.000000
0.062500 0.562500 0.000000
0.062500 0.625000 0.000000
0.062500 0.687500 0.000000
0.062500 0.750000 0.000000
0.062500 0.812500 0.000000
0.062500 0.875000 0.000000
0.062500 0.937500 0.000000
0.062500 1.000000 0.000000
0.125000 0.000000 0.000000
0.125000 0.062500 0.000000
0.125000 0.125000 0.000000
0.125000 0.187500 0.000000
0.125000 0.250000 0.000000
0.125000 0.312500 0.000000
0.125000 0.375000 0.000000
0.125000 0.437500 0.000000
0.125000 0.500000 0.000000
0.125000 0.562500 0.000000
0.125000 0.625000 0.000000
0.125000 0.687500 0.000000
0.125000 0.750000 0.000000
0.125000 0.812500 0.000000
0.125000 0.875000 0.000000
0.125000 0.937500 0.000000
0.125000 1.000000 0.000000
0.187500 0.000000 0.000000
0.187500 0.062500 0.000000
0.187500 0.125000 0.000000
0.187500 0.187500 0.000000
0.187500 0.250000 0.000000
0.187500 0.312500 0.000000
0.187500 0.375000 0.000000
0.187500 0.437500 0.000000
0.187500 0.500000 0.000000
0.187500 0.562500 0.000000
0.187500 0.625000 0.000000
0.187500 0.687500 0.000000
0.187500 0.750000 0.000000
0.187500 0.812500 0.000000
0.187500 0.875000 0.000000
0.187500 0.937500 0.000000
0.187500 1.000000 0.000000
0.250000 0.000000 0.000000
0.250000 0.062500 0.000000
0.250000 0.125000 0.000000
0.250000 0.187500 0.000000
0.250000 0.250000 0.000000
0.250000 0.312500 0.000000
0.250000 0.375000 0.000000
0.250000 0.437500 0.000000
0.250000 0.500000 0.000000
0.250000 0.562500 0.000000
0.250000 0.625000 0.000000
0.250000 0.687500 0.000000
0.250000 0.750000 0.000000
0.250000 0.812500 0.000000
0.250000 0.875000 0.000000
0.250000 0.937500 0.000000
0.250000 1.000000 0.000000
0.312500 0.000000 0.000000
0.312500 0.062500 0.000000
0.312500 0.125000 0.000000
0.312500 0.187500 0.000000
0.312500 0.250000 0.000000
0.312500 0.312500 0.000000
0.312500 0.375000 0.000000
0.312500 0.437500 0.000000
0.312500 0.500000 0.000000
0.312500 0.562500 0.000000
0.312500 0.625000 0.000000
0.312500 0.687500 0.000000
0.312500 0.750000 0.000000
0.312500 0.812500 0.000000
0.312500 0.875000 0.000000
0.312500 0.937500 0.000000
0.312500 1.000000 0.000000
0.375000 0.000000 0.000000
0.375000 0.062500 0.000000
0.375000 0.125000 0.000000
0.375000 0.187500 0.000000
0.375000 0.250000 0.000000
0.375000 0.312500 0.000000
0.375000 0.375000 0.000000
0.375000 0.437500 0.000000
0.375000 0.500000 0.000000
0.375000 0.562500 0.000000
0.375000 0.625000 0.000000
0.375000 0.687500 0.000000
0.375000 0.750000 0.000000
0.375000 0.812500 0.000000
0.375000 0.875000 0.000000
0.375000 0.937500 0.000000
0.375000 1.000000 0.000000
0.437500 0.000000 0.000000
0.437500 0.062500 0.000000
0.437500 0.125000 0.000000
0.437500 0.187500 0.000000
0.437500 0.250000 0.000000
0.437500 0.312500 0.000000
0.437500 0.375000 0.000000
0.437500 0.437500 0.000000
0.437500 0.500000 0.000000
0.437500 0.562500 0.000000
0.437500 0.625000 0.000000
0.437500 0.687500 0.000000
0.437500 0.750000 0.000000
0.437500 0.812500 0.000000
0.437500 0.875000 0.000000
0.437500 0.937500 0.000000
0.437500 1.000000 0.000000
0.500000 0.000000 0.000000
0.500000 0.062500 0.000000
0.500000 0.125000 0.000000
0.500000 0.187500 0.000000
0.500000 0.250000 0.000000
0.500000 0.312500 0.000000
0.500000 0.375000 0.000000
0.500000 0.437500 0.000000
0.500000 0.500000 0.000000
0.500000 0.562500 0.000000
0.500000 0.625000 0.000000
0.500000 0.687500 0.000000
0.500000 0.750000 0.000000
0.500000 0.812500 0.000000
0.500000 0.875000 0.000000
0.500000 0.937500 0.000000
0.500000 1.000000 0.000000
0.562500 0.000000 0.000000
0.562500 0.062500 0.000000
0.562500 0.125000 0.000000
0.562500 0.187500 0.000000
0.562500 0.250000 0.000000
0.562500 0.312500 0.000000
0.562500 0.375000 0.000000
0.562500 0.437500 0.000000
0.562500 0.500000 0.000000
0.562500 0.562500 0.000000
0.562500 0.625000 0.000000
0.562500 0.687500 0.000000
0.562500 0.750000 0.000000
0.562500 0.812500 0.000000
0.562500 0.875000 0.000000
0.562500 0.937500 0.000000
0.562500 1.000000 0.000000
0.625000 0.000000 0.000000
0.625000 0.062500 0.000000
0.625000 0.125000 0.000000
0.625000 0.187500 0.000000
0.625000 0.250000 0.000000
0.625000 0.312500 0.000000
0.625000 0.375000 0.000000
0.625000 0.437500 0.000000
0.625000 0.500000 0.000000
0.625000 0.562500 0.000000
0.625000 0.625000 0.000000
0.625000 0.687500 0.000000
0.625000 0.750000 0.000000
0.625000 0.812500 0.000000
0.625000 0.875000 0.000000
0.625000 0.937500 0.000000
0.625000 1.000000 0.000000
0.687500 0.000000 0.000000
0.687500 0.062500 0.000000
0.687500 0.125000 0.000000
0.687500 0.187500 0.000000
0.687500 0.250000 0.000000
0.687500 0.312500 0.000000
0.687500 0.375000 0.000000
0.687500 0.437500 0.000000
0.687500 0.500000 0.000000
0.687500 0.562500 0.000000
0.687500 0.625000 0.000000
0.687500 0.687500 0.000000
0.687500 0.750000 0.000000
0.687500 0.812500 0.000000
0.687500 0.875000 0.000000
0.687500 0.937500 0.000000
0.687500 1.000000 0.000000
0.750000 0.000000 0.000000
0.750000 0.062500 0.000000
0.750000 0.125000 0.000000
0.750000 0.187500 0.000000
0.750000 0.250000 0.000000
0.750000 0.312500 0.000000
0.750000 0.375000 0.000000
0.750000 0.437500 0.000000
0.750000 0.500000 0.000000
0.750000 0.562500 0.000000
0.750000 0.625000 0.000000
0.750000 0.687500 0.000000
0.750000 0.750000 0.000000
0.750000 0.812500 0.000000
0.750000 0.875000 0.000000
0.750000 0.937500 0.000000
0.750000 1.000000 0.000000
0.812500 0.000000 0.000000
0.812500 0.062500 0.000000
0.812500 0.125000 0.000000
0.812500 0.187500 0.000000
0.812500 0.250000 0.000000
0.812500 0.312500 0.000000
0.812500 0.375000 0.000000
0.812500 0.437500 0.000000
0.812500 0.500000 0.000000
0.812500 0.562500 0.000000
0.812500 0.625000 0.000000
0.812500 0.687500 0.000000
0.812500 0.750000 0.000000
0.812500 0.812500 0.000000
0.812500 0.875000 0.000000
0.812500 0.937500 0.000000
0.812500 1.000000 0.000000
0.875000 0.000000 0.000000
0.875000 0.062500 0.000000
0.875000 0.125000 0.000000
0.875000 0.187500 0.000000
0.875000 0.250000 0.000000
0.875000 0.312500 0.000000
0.875000 0.375000 0.000000
0.875000 0.437500 0.000000
0.875000 0.500000 0.000000
0.875000 0.562500 0.000000
0.875000 0.625000 0.000000
0.875000 0.687500 0.000000
0.875000 0.750000 0.000000
0.875000 0.812500 0.000000
0.875000 0.875000 0.000000
0.875000 0.937500 0.000000
0.875000 1.000000 0.000000
0.937500 0.000000 0.000000
0.937500 0.062500 0.000000
0.937500 0.125000 0.000000
0.937500 0.187500 0.000000
0.937500 0.250000 0.000000
0.937500 0.312500 0.000000
0.937500 0.375000 0.000000
0.937500 0.437500 0.000000
0.937500 0.500000 0.000000
0.937500 0.562500 0.000000
0.937500 0.625000 0.000000
0.937500 0.687500 0.000000
0.937500 0.750000 0.000000
0.937500 0.812500 0.000000
0.937500 0.875000 0.000000
0.937500 0.937500 0.000000
0.937500 1.000000 0.000000
1.000000 0.000000 0.000000
1.000000 0.062500 0.000000
1.000000 0.125000 0.000000
1.000000 0.187500 0.000000
1.000000 0.250000 0.000000
1.000000 0.312500 0.000000
1.000000 0.375000 0.000000
1.000000 0.437500 0.000000
1.000000 0.500000 0.000000
1.000000 0.562500 0.000000
1.000000 0.625000 0.000000
1.000000 0.687500 0.000000
1.000000 0.750000 0.000000
1.000000 0.812500 0.000000
1.000000 0.875000 0.000000
1.000000 0.937500 0.000000
1.000000 1.000000 0.000000
POINT_DATA 289
SCALARS phi FLOAT 1
LOOKUP_TABLE default
0.000000000000
0.004893227482
0.009941782678
0.015150596219
0.020524755250
0.026069508402
0.031790270912
0.037692629918
0.043782349911
0.050065378368
0.056547851557
0.063236100534
0.070136657324
0.077256261300
0.084601865766
0.092180644748
0.100000000000
0.005328475251
0.007355729222
0.011275083067
0.015995455644
0.021158078637
0.026638189721
0.032398421630
0.038444353957
0.044815143477
0.051592593006
0.058930627291
0.067123472715
0.076765434625
0.089155337683
0.107425880448
0.140043037369
0.132100868361
0.007412622883
0.009439876854
0.012851715291
0.017189710398
0.022147230889
0.027571868671
0.033412194873
0.039689142735
0.046494158836
0.054013596008
0.062589176181
0.072842349950
0.085924092046
0.104014927557
0.131287736290
0.175450416828
0.167508247820
0.009501129373
0.011528383344
0.014690647064
0.018779787360
0.023592128974
0.029005733348
0.034987888975
0.041594778130
0.048985952892
0.057465101640
0.067561471016
0.080176266895
0.096831318515
0.120058633154
0.153898638761
0.204135932852
0.196193763844
0.011955303643
0.013982557614
0.017017959457
0.020965769898
0.025708419586
0.031175126762
0.037373448392
0.044410173785
0.052521200919
0.062124194328
0.073907036533
0.088965874866
0.109000973005
0.136547874549
0.175125158778
0.228962664451
0.221020495443
0.015289215001
0.017316468972
0.020292585795
0.024180396262
0.028927472625
0.034517650201
0.041009005698
0.048566672602
0.057502775773
0.068334185880
0.081866258166
0.099305435895
0.122389106552
0.153485972248
0.195552173007
0.251741122164
0.243798953156
0.020387509156
0.022414763127
0.025374049151
0.029263820682
0.034081551798
0.039862613692
0.046717917574
0.054871672609
0.064705513187
0.076815110084
0.092081971563
0.111755406258
0.137524096331
0.171529747705
0.216240098814
0.274082961235
0.266140792227
0.028878264968
0.030905518939
0.033877251187
0.037816679346
0.042760831586
0.048791290615
0.056069208964
0.064873540204
0.075644717893
0.089035773825
0.105969234792
0.127690482048
0.155795641967
0.192195484202
0.238964151222
0.298034531063
0.290092362055
0.043827707257
0.045854961228
0.048860143693
0.052885337974
0.057999696300
0.064324914947
0.072066934636
0.081552036205
0.093267054958
0.107902727155
0.126395736926
0.149958708304
0.180078704562
0.218456510988
0.266858456119
0.326872590771
0.318930421763
0.071059463031
0.073086717002
0.076139952954
0.080276232494
0.085590791380
0.092238902045
0.100464158531
0.110631083515
0.123260331433
0.139063684851
0.158973091062
0.184153329418
0.215982662505
0.255982875765
0.305684739592
0.366433571614
0.358491402606
0.121670455985
0.123697709956
0.126807617464
0.131068838451
0.136596834075
0.143573208331
0.152270765171
0.163082127717
0.176549502098
0.193391962863
0.214524284374
0.241058193420
0.274274116851
0.315551270337
0.366249530626
0.427550917270
0.419608748262
0.216833387934
0.218860641905
0.222029643847
0.226416401888
0.232149423859
0.239427712071
0.248543003341
0.259904396493
0.274062973355
0.291732806134
0.313802985936
0.341333362764
0.375525354308
0.417659625351
0.468995891466
0.530637588132
0.522695419124
0.396965415650
0.398992669621
0.402217556021
0.406715327972
0.412616021778
0.420123215934
0.429533744219
0.441258241595
0.455841108792
0.473977054520
0.496520193244
0.524480895753
0.559005410819
0.601333325300
0.652725955807
0.714350252223
0.706408083215
0.739231175200
0.741258429171
0.744536692642
0.749118070025
0.755111145794
0.762703352566
0.772176075309
0.783919468573
0.798447573364
0.816411937343
0.838611656830
0.865998922985
0.899681747410
0.940928068771
0.991169476385
1.051959586887
1.044017417879
1.390948575909
1.392975829880
1.396338254995
1.400983001836
1.406948241929
1.414372541252
1.423490846697
1.434637513352
1.448254752114
1.464903584546
1.485276837893
1.510218689139
1.540765354731
1.578240836861
1.624468826798
1.682139381345
1.674197212337
2.633316825936
2.635344079907
2.639003537670
2.643772895765
2.649546616679
2.656380285951
2.664420242336
2.673886737674
2.685074069902
2.698357231887
2.714204180856
2.733201504452
2.756119992993
2.784100353007
2.819212533774
2.866254393583
2.858312224575
5.000000000000
5.004893227482
5.009941782678
5.015150596219
5.020524755250
5.026069508402
5.031790270912
5.037692629918
5.043782349911
5.050065378368
5.056547851557
5.063236100534
5.070136657324
5.077256261300
5.084601865766
5.092180644748
5.100000000000
