# vtk DataFile Version 2.0
TITLE = "Quad data"
ASCII
DATASET STRUCTURED_GRID
DIMENSIONS 65 65 1
POINTS 4225 FLOAT
0.000000 0.000000 0.000000
0.000000 0.015625 0.000000
0.000000 0.031250 0.000000
0.000000 0.046875 0.000000
0.000000 0.062500 0.000000
0.000000 0.078125 0.000000
0.000000 0.093750 0.000000
0.000000 0.109375 0.000000
0.000000 0.125000 0.000000
0.000000 0.140625 0.000000
0.000000 0.156250 0.000000
0.000000 0.171875 0.000000
0.000000 0.187500 0.000000
0.000000 0.203125 0.000000
0.000000 0.218750 0.000000
0.000000 0.234375 0.000000
0.000000 0.250000 0.000000
0.000000 0.265625 0.000000
0.000000 0.281250 0.000000
0.000000 0.296875 0.000000
0.000000 0.312500 0.000000
0.000000 0.328125 0.000000
0.000000 0.343750 0.000000
0.000000 0.359375 0.000000
0.000000 0.375000 0.000000
0.000000 0.390625 0.000000
0.000000 0.406250 0.000000
0.000000 0.421875 0.000000
0.000000 0.437500 0.000000
0.000000 0.453125 0.000000
0.000000 0.468750 0.000000
0.000000 0.484375 0.000000
0.000000 0.500000 0.000000
0.000000 0.515625 0.000000
0.000000 0.531250 0.000000
0.000000 0.546875 0.000000
0.000000 0.562500 0.000000
0.000000 0.578125 0.000000
0.000000 0.593750 0.000000
0.000000 0.609375 0.000000
0.000000 0.625000 0.000000
0.000000 0.640625 0.000000
0.000000 0.656250 0.000000
0.000000 0.671875 0.000000
0.000000 0.687500 0.000000
0.000000 0.703125 0.000000
0.000000 0.718750 0.000000
0.000000 0.734375 0.000000
0.000000 0.750000 0.000000
0.000000 0.765625 0.000000
0.000000 0.781250 0.000000
0.000000 0.796875 0.000000
0.000000 0.812500 0.000000
0.000000 0.828125 0.000000
0.000000 0.843750 0.000000
0.000000 0.859375 0.000000
0.000000 0.875000 0.000000
0.000000 0.890625 0.000000
0.000000 0.906250 0.000000
0.000000 0.921875 0.000000
0.000000 0.937500 0.000000
0.000000 0.953125 0.000000
0.000000 0.968750 0.000000
0.000000 0.984375 0.000000
0.000000 1.000000 0.000000
0.015625 0.000000 0.000000
0.015625 0.015625 0.000000
0.015625 0.031250 0.000000
0.015625 0.046875 0.000000
0.015625 0.062500 0.000000
0.015625 0.078125 0.000000
0.015625 0.093750 0.000000
0.015625 0.109375 0.000000
0.015625 0.125000 0.000000
0.015625 0.140625 0.000000
0.015625 0.156250 0.000000
0.015625 0.171875 0.000000
0.015625 0.187500 0.000000
0.015625 0.203125 0.000000
0.015625 0.218750 0.000000
0.015625 0.234375 0.000000
0.015625 0.250000 0.000000
0.015625 0.265625 0.000000
0.015625 0.281250 0.000000
0.015625 0.296875 0.000000
0.015625 0.312500 0.000000
0.015625 0.328125 0.000000
0.015625 0.343750 0.000000
0.015625 0.359375 0.000000
0.015625 0.375000 0.000000
0.015625 0.390625 0.000000
0.015625 0.406250 0.000000
0.015625 0.421875 0.000000
0.015625 0.437500 0.000000
0.015625 0.453125 0.000000
0.015625 0.468750 0.000000
0.015625 0.484375 0.000000
0.015625 0.500000 0.000000
0.015625 0.515625 0.000000
0.015625 0.531250 0.000000
0.015625 0.546875 0.000000
0.015625 0.562500 0.000000
0.015625 0.578125 0.000000
0.015625 0.593750 0.000000
0.015625 0.609375 0.000000
0.015625 0.625000 0.000000
0.015625 0.640625 0.000000
0.015625 0.656250 0.000000
0.015625 0.671875 0.000000
0.015625 0.687500 0.000000
0.015625 0.703125 0.000000
0.015625 0.718750 0.000000
0.015625 0.734375 0.000000
0.015625 0.750000 0.000000
0.015625 0.765625 0.000000
0.015625 0.781250 0.000000
0.015625 0.796875 0.000000
0.015625 0.812500 0.000000
0.015625 0.828125 0.000000
0.015625 0.843750 0.000000
0.015625 0.859375 0.000000
0.015625 0.875000 0.000000
0.015625 0.890625 0.000000
0.015625 0.906250 0.000000
0.015625 0.921875 0.000000
0.015625 0.937500 0.000000
0.015625 0.953125 0.000000
0.015625 0.968750 0.000000
0.015625 0.984375 0.000000
0.015625 1.000000 0.000000
0.031250 0.000000 0.000000
0.031250 0.015625 0.000000
0.031250 0.031250 0.000000
0.031250 0.046875 0.000000
0.031250 0.062500 0.000000
0.031250 0.078125 0.000000
0.031250 0.093750 0.000000
0.031250 0.109375 0.000000
0.031250 0.125000 0.000000
0.031250 0.140625 0.000000
0.031250 0.156250 0.000000
0.031250 0.171875 0.000000
0.031250 0.187500 0.000000
0.031250 0.203125 0.000000
0.031250 0.218750 0.000000
0.031250 0.234375 0.000000
0.031250 0.250000 0.000000
0.031250 0.265625 0.000000
0.031250 0.281250 0.000000
0.031250 0.296875 0.000000
0.031250 0.312500 0.000000
0.031250 0.328125 0.000000
0.031250 0.343750 0.000000
0.031250 0.359375 0.000000
0.031250 0.375000 0.000000
0.031250 0.390625 0.000000
0.031250 0.406250 0.000000
0.031250 0.421875 0.000000
0.031250 0.437500 0.000000
0.031250 0.453125 0.000000
0.031250 0.468750 0.000000
0.031250 0.484375 0.000000
0.031250 0.500000 0.000000
0.031250 0.515625 0.000000
0.031250 0.531250 0.000000
0.031250 0.546875 0.000000
0.031250 0.562500 0.000000
0.031250 0.578125 0.000000
0.031250 0.593750 0.000000
0.031250 0.609375 0.000000
0.031250 0.625000 0.000000
0.031250 0.640625 0.000000
0.031250 0.656250 0.000000
0.031250 0.671875 0.000000
0.031250 0.687500 0.000000
0.031250 0.703125 0.000000
0.031250 0.718750 0.000000
0.031250 0.734375 0.000000
0.031250 0.750000 0.000000
0.031250 0.765625 0.000000
0.031250 0.781250 0.000000
0.031250 0.796875 0.000000
0.031250 0.812500 0.000000
0.031250 0.828125 0.000000
0.031250 0.843750 0.000000
0.031250 0.859375 0.000000
0.031250 0.875000 0.000000
0.031250 0.890625 0.000000
0.031250 0.906250 0.000000
0.031250 0.921875 0.000000
0.031250 0.937500 0.000000
0.031250 0.953125 0.000000
0.031250 0.968750 0.000000
0.031250 0.984375 0.000000
0.031250 1.000000 0.000000
0.046875 0.000000 0.000000
0.046875 0.015625 0.000000
0.046875 0.031250 0.000000
0.046875 0.046875 0.000000
0.046875 0.062500 0.000000
0.046875 0.078125 0.000000
0.046875 0.093750 0.000000
0.046875 0.109375 0.000000
0.046875 0.125000 0.000000
0.046875 0.140625 0.000000
0.046875 0.156250 0.000000
0.046875 0.171875 0.000000
0.046875 0.187500 0.000000
0.046875 0.203125 0.000000
0.046875 0.218750 0.000000
0.046875 0.234375 0.000000
0.046875 0.250000 0.000000
0.046875 0.265625 0.000000
0.046875 0.281250 0.000000
0.046875 0.296875 0.000000
0.046875 0.312500 0.000000
0.046875 0.328125 0.000000
0.046875 0.343750 0.000000
0.046875 0.359375 0.000000
0.046875 0.375000 0.000000
0.046875 0.390625 0.000000
0.046875 0.406250 0.000000
0.046875 0.421875 0.000000
0.046875 0.437500 0.000000
0.046875 0.453125 0.000000
0.046875 0.468750 0.000000
0.046875 0.484375 0.000000
0.046875 0.500000 0.000000
0.046875 0.515625 0.000000
0.046875 0.531250 0.000000
0.046875 0.546875 0.000000
0.046875 0.562500 0.000000
0.046875 0.578125 0.000000
0.046875 0.593750 0.000000
0.046875 0.609375 0.000000
0.046875 0.625000 0.000000
0.046875 0.640625 0.000000
0.046875 0.656250 0.000000
0.046875 0.671875 0.000000
0.046875 0.687500 0.000000
0.046875 0.703125 0.000000
0.046875 0.718750 0.000000
0.046875 0.734375 0.000000
0.046875 0.750000 0.000000
0.046875 0.765625 0.000000
0.046875 0.781250 0.000000
0.046875 0.796875 0.000000
0.046875 0.812500 0.000000
0.046875 0.828125 0.000000
0.046875 0.843750 0.000000
0.046875 0.859375 0.000000
0.046875 0.875000 0.000000
0.046875 0.890625 0.000000
0.046875 0.906250 0.000000
0.046875 0.921875 0.000000
0.046875 0.937500 0.000000
0.046875 0.953125 0.000000
0.046875 0.968750 0.000000
0.046875 0.984375 0.000000
0.046875 1.000000 0.000000
0.062500 0.000000 0.000000
0.062500 0.015625 0.000000
0.062500 0.031250 0.000000
0.062500 0.046875 0.000000
0.062500 0.062500 0.000000
0.062500 0.078125 0.000000
0.062500 0.093750 0.000000
0.062500 0.109375 0.000000
0.062500 0.125000 0.000000
0.062500 0.140625 0.000000
0.062500 0.156250 0.000000
0.062500 0.171875 0.000000
0.062500 0.187500 0.000000
0.062500 0.203125 0.000000
0.062500 0.218750 0.000000
0.062500 0.234375 0.000000
0.062500 0.250000 0.000000
0.062500 0.265625 0.000000
0.062500 0.281250 0.000000
0.062500 0.296875 0.000000
0.062500 0.312500 0.000000
0.062500 0.328125 0.000000
0.062500 0.343750 0.000000
0.062500 0.359375 0.000000
0.062500 0.375000 0.000000
0.062500 0.390625 0.000000
0.062500 0.406250 0.000000
0.062500 0.421875 0.000000
0.062500 0.437500 0.000000
0.062500 0.453125 0.000000
0.062500 0.468750 0.000000
0.062500 0.484375 0.000000
0.062500 0.500000 0.000000
0.062500 0.515625 0.000000
0.062500 0.531250 0.000000
0.062500 0.546875 0.000000
0.062500 0.562500 0.000000
0.062500 0.578125 0.000000
0.062500 0.593750 0.000000
0.062500 0.609375 0.000000
0.062500 0.625000 0.000000
0.062500 0.640625 0.000000
0.062500 0.656250 0.000000
0.062500 0.671875 0.000000
0.062500 0.687500 0.000000
0.062500 0.703125 0.000000
0.062500 0.718750 0.000000
0.062500 0.734375 0.000000
0.062500 0.750000 0.000000
0.062500 0.765625 0.000000
0.062500 0.781250 0.000000
0.062500 0.796875 0.000000
0.062500 0.812500 0.000000
0.062500 0.828125 0.000000
0.062500 0.843750 0.000000
0.062500 0.859375 0.000000
0.062500 0.875000 0.000000
0.062500 0.890625 0.000000
0.062500 0.906250 0.000000
0.062500 0.921875 0.000000
0.062500 0.937500 0.000000
0.062500 0.953125 0.000000
0.062500 0.968750 0.000000
0.062500 0.984375 0.000000
0.062500 1.000000 0.000000
0.078125 0.000000 0.000000
0.078125 0.015625 0.000000
0.078125 0.031250 0.000000
0.078125 0.046875 0.000000
0.078125 0.062500 0.000000
0.078125 0.078125 0.000000
0.078125 0.093750 0.000000
0.078125 0.109375 0.000000
0.078125 0.125000 0.000000
0.078125 0.140625 0.000000
0.078125 0.156250 0.000000
0.078125 0.171875 0.000000
0.078125 0.187500 0.000000
0.078125 0.203125 0.000000
0.078125 0.218750 0.000000
0.078125 0.234375 0.000000
0.078125 0.250000 0.000000
0.078125 0.265625 0.000000
0.078125 0.281250 0.000000
0.078125 0.296875 0.000000
0.078125 0.312500 0.000000
0.078125 0.328125 0.000000
0.078125 0.343750 0.000000
0.078125 0.359375 0.000000
0.078125 0.375000 0.000000
0.078125 0.390625 0.000000
0.078125 0.406250 0.000000
0.078125 0.421875 0.000000
0.078125 0.437500 0.000000
0.078125 0.453125 0.000000
0.078125 0.468750 0.000000
0.078125 0.484375 0.000000
0.078125 0.500000 0.000000
0.078125 0.515625 0.000000
0.078125 0.531250 0.000000
0.078125 0.546875 0.000000
0.078125 0.562500 0.000000
0.078125 0.578125 0.000000
0.078125 0.593750 0.000000
0.078125 0.609375 0.000000
0.078125 0.625000 0.000000
[...]
POINT_DATA 4225
SCALARS phi FLOAT 1
LOOKUP_TABLE default
-0.000000000000
0.001209008793
0.002427499960
0.003655547871
0.004893227482
0.006140614334
0.007397784562
0.008664814899
0.009941782678
0.011228765839
0.012525842934
0.013833093131
0.015150596219
0.016478432611
0.017816683353
0.019165430125
0.020524755250
0.021894741694
0.023275473075
0.024667033666
0.026069508402
0.027482982884
0.028907543383
0.030343276849
0.031790270912
0.033248613890
0.034718394794
0.036199703333
0.037692629918
0.039197265672
0.040713702430
0.042242032749
0.043782349911
0.045334747931
0.046899321559
0.048476166290
0.050065378368
0.051667054790
0.053281293317
0.054908192473
0.056547851557
0.058200370647
0.059865850604
0.061544393083
0.063236100534
0.064941076211
0.066659424177
0.068391249314
0.070136657324
0.071895754738
0.073668648925
0.075455448093
0.077256261300
0.079071198460
0.080900370349
0.082743888611
0.084601865766
0.086474415216
0.088361651254
0.090263689067
0.092180644748
0.094112635299
0.096059778639
0.098022193614
0.100000000000
0.000038391571
0.001247400364
0.002465891531
0.003693939442
0.004931619053
0.006179005905
0.007436176133
0.008703206470
0.009980174249
0.011267157410
0.012564234505
0.013871484702
0.015188987789
0.016516824182
0.017855074924
0.019203821696
0.020563146821
0.021933133265
0.023313864645
0.024705425237
0.026107899973
0.027521374454
0.028945934954
0.030381668420
0.031828662483
0.033287005461
0.034756786365
0.036238094904
0.037731021489
0.039235657243
0.040752094001
0.042280424320
0.043820741482
0.045373139502
0.046937713130
0.048514557861
0.050103769939
0.051705446361
0.053319684888
0.054946584044
0.056586243128
0.058238762218
0.059904242175
0.061582784654
0.063274492105
0.064979467782
0.066697815748
0.068429640885
0.070175048895
0.071934146309
0.073707040496
0.075493839663
0.077294652871
0.079109590031
0.080938761920
0.082782280182
0.084640257337
0.086512806787
0.088400042825
0.090302080638
0.092219036319
0.094151026870
0.096098170210
0.098060585185
0.100038391571
0.000083275865
0.001292284658
0.002510775825
0.003738823736
0.004976503346
0.006223890199
0.007481060427
0.008748090764
0.010025058542
0.011312041704
0.012609118799
0.013916368996
0.015233872083
0.016561708475
0.017899959217
0.019248705990
0.020608031115
0.021978017558
0.023358748939
0.024750309530
0.026152784266
0.027566258748
0.028990819248
0.030426552714
0.031873546777
0.033331889755
0.034801670659
0.036282979197
0.037775905783
0.039280541536
0.040796978295
0.042325308614
0.043865625776
0.045418023795
0.046982597424
0.048559442155
0.050148654232
0.051750330655
0.053364569181
0.054991468337
0.056631127421
0.058283646511
0.059949126469
0.061627668948
0.063319376399
0.065024352075
0.066742700042
0.068474525179
0.070219933188
0.071979030603
0.073751924789
0.075538723957
0.077339537164
0.079154474325
0.080983646214
0.082827164476
0.084685141631
0.086557691081
0.088444927119
0.090346964932
0.092263920613
0.094195911163
0.096143054504
0.098105469478
0.100083275865
0.000135750920
0.001344759713
0.002563250880
0.003791298792
0.005028978402
0.006276365254
0.007533535483
0.008800565819
0.010077533598
0.011364516759
0.012661593854
0.013968844051
0.015286347139
0.016614183531
0.017952434273
0.019301181046
0.020660506170
0.022030492614
0.023411223995
0.024802784586
0.026205259322
0.027618733804
0.029043294303
0.030479027769
0.031926021832
0.033384364811
0.034854145715
0.036335454253
0.037828380838
0.039333016592
0.040849453350
0.042377783669
0.043918100832
0.045470498851
0.047035072479
0.048611917210
0.050201129288
0.051802805711
0.053417044237
0.055043943393
0.056683602477
0.058336121567
0.060001601525
0.061680144004
0.063371851454
0.065076827131
0.066795175098
0.068527000234
0.070272408244
0.072031505658
0.073804399845
0.075591199013
0.077392012220
0.079206949381
0.081036121270
0.082879639531
0.084737616686
0.086610166137
0.088497402174
0.090399439988
0.092316395668
0.094248386219
0.096195529559
0.098157944534
0.100135750920
0.000197100476
0.001406109269
0.002624600436
0.003852648347
0.005090327958
0.006337714810
0.007594885038
0.008861915375
0.010138883154
0.011425866315
0.012722943410
0.014030193607
0.015347696694
0.016675533086
0.018013783829
0.019362530601
0.020721855726
0.022091842170
0.023472573550
0.024864134141
0.026266608878
0.027680083359
0.029104643859
0.030540377325
0.031987371388
0.033445714366
0.034915495270
0.036396803809
0.037889730394
0.039394366148
0.040910802906
0.042439133225
0.043979450387
0.045531848407
0.047096422035
0.048673266766
0.050262478844
0.051864155266
0.053478393792
0.055105292948
0.056744952033
0.058397471123
0.060062951080
0.061741493559
0.063433201010
0.065138176687
0.066856524653
0.068588349790
0.070333757800
0.072092855214
0.073865749400
0.075652548568
0.077453361776
0.079268298936
0.081097470825
0.082940989087
0.084798966242
0.086671515692
0.088558751730
0.090460789543
0.092377745224
0.094309735775
0.096256879115
0.098219294090
0.100197100476
0.000268825373
0.001477834166
0.002696325333
0.003924373244
0.005162052855
0.006409439707
0.007666609935
0.008933640272
0.010210608051
0.011497591212
0.012794668307
0.014101918504
0.015419421591
0.016747257984
0.018085508726
0.019434255498
0.020793580623
0.022163567067
0.023544298447
0.024935859039
0.026338333775
0.027751808256
0.029176368756
0.030612102222
0.032059096285
0.033517439263
0.034987220167
0.036468528706
0.037961455291
0.039466091045
0.040982527803
0.042510858122
0.044051175284
0.045603573304
0.047168146932
0.048744991663
0.050334203741
0.051935880163
0.053550118690
0.055177017846
0.056816676930
0.058469196020
0.060134675977
0.061813218456
0.063504925907
0.065209901584
0.066928249550
0.068660074687
0.070405482697
0.072164580111
0.073937474298
0.075724273465
0.077525086673
0.079340023833
0.081169195722
0.083012713984
0.084870691139
0.086743240589
0.088630476627
0.090532514440
0.092449470121
0.094381460672
0.096328604012
0.098291018987
0.100268825373
0.000352680273
0.001561689066
0.002780180233
0.004008228144
0.005245907755
0.006493294607
0.007750464835
0.009017495172
0.010294462951
0.011581446112
0.012878523207
0.014185773404
0.015503276492
0.016831112884
0.018169363626
0.019518110398
0.020877435523
0.022247421967
0.023628153348
0.025019713939
0.026422188675
0.027835663157
0.029260223656
0.030695957122
0.032142951185
0.033601294164
0.035071075067
0.036552383606
0.038045310191
0.039549945945
0.041066382703
0.042594713022
0.044135030184
0.045687428204
0.047252001832
0.048828846563
0.050418058641
0.052019735063
0.053633973590
0.055260872746
0.056900531830
0.058553050920
0.060218530877
0.061897073356
0.063588780807
0.065293756484
0.067012104450
0.068743929587
0.070489337597
0.072248435011
0.074021329198
0.075808128366
0.077608941573
0.079423878733
0.081253050622
0.083096568884
0.084954546039
0.086827095489
0.088714331527
0.090616369341
0.092533325021
0.094465315572
0.096412458912
0.098374873887
0.100352680273
0.000450716584
0.001659725377
0.002878216544
0.004106264455
0.005343944066
0.006591330918
0.007848501146
0.009115531483
0.010392499262
0.011679482423
0.012976559518
0.014283809715
0.015601312802
0.016929149194
0.018267399936
0.019616146709
0.020975471834
0.022345458278
0.023726189658
0.025117750249
0.026520224985
0.027933699467
0.029358259967
0.030793993433
0.032240987496
0.033699330474
0.035169111378
0.036650419917
0.038143346502
0.039647982256
0.041164419014
0.042692749333
0.044233066495
0.045785464515
0.047350038143
0.048926882874
0.050516094952
0.052117771374
0.053732009900
0.055358909056
0.056998568141
0.058651087230
0.060316567188
0.061995109667
0.063686817118
0.065391792794
0.067110140761
0.068841965898
0.070587373908
0.072346471322
0.074119365508
0.075906164676
0.077706977884
0.079521915044
0.081351086933
0.083194605195
0.085052582350
0.086925131800
0.088812367838
0.090714405651
0.092631361332
0.094563351883
0.096510495223
0.098472910198
0.100450716584
0.000565332643
0.001774341436
0.002992832603
0.004220880514
0.005458560125
0.006705946977
0.007963117205
0.009230147542
0.010507115321
0.011794098482
0.013091175577
0.014398425774
0.015715928861
0.017043765254
0.018382015996
0.019730762768
0.021090087893
0.022460074337
0.023840805717
0.025232366309
0.026634841045
0.028048315526
0.029472876026
0.030908609492
0.032355603555
0.033813946533
0.035283727437
0.036765035976
0.038257962561
0.039762598315
0.041279035073
0.042807365392
0.044347682554
0.045900080574
0.047464654202
0.049041498933
0.050630711011
0.052232387433
0.053846625960
0.055473525116
0.057113184200
0.058765703290
0.060431183247
0.062109725726
0.063801433177
0.065506408854
0.067224756820
0.068956581957
0.070701989967
0.072461087381
0.074233981567
0.076020780735
0.077821593943
0.079636531103
0.081465702992
0.083309221254
0.085167198409
0.087039747859
0.088926983897
0.090829021710
0.092745977391
0.094677967942
0.096625111282
0.098587526257
0.100565332643
0.000699332392
0.001908341185
0.003126832352
0.004354880263
0.005592559874
0.006839946726
0.008097116954
0.009364147291
0.010641115070
0.011928098231
0.013225175326
0.014532425523
0.015849928610
0.017177765003
0.018516015745
0.019864762517
0.021224087642
0.022594074086
0.023974805466
0.025366366058
0.026768840794
0.028182315275
0.029606875775
0.031042609241
0.032489603304
0.033947946282
0.035417727186
0.036899035725
0.038391962310
0.039896598064
0.041413034822
0.042941365141
0.044481682303
0.046034080323
0.047598653951
0.049175498682
0.050764710760
0.052366387182
0.053980625708
0.055607524865
0.057247183949
0.058899703039
0.060565182996
0.062243725475
0.063935432926
0.065640408603
0.067358756569
0.069090581706
0.070835989716
0.072595087130
0.074367981316
0.076154780484
0.077955593692
0.079770530852
0.081599702741
0.083443221003
0.085301198158
0.087173747608
0.089060983646
0.090963021459
0.092879977140
0.094811967691
0.096759111031
0.098721526006
0.100699332392
0.000855993970
0.002065002763
0.003283493930
0.004511541842
0.005749221452
0.006996608304
0.008253778533
0.009520808869
0.010797776648
0.012084759809
0.013381836904
0.014689087101
0.016006590189
0.017334426581
0.018672677323
0.020021424096
0.021380749220
0.022750735664
0.024131467045
0.025523027636
0.026925502372
0.028338976854
0.029763537353
0.031199270819
0.032646264882
0.034104607861
0.035574388765
0.037055697303
0.038548623888
0.040053259642
0.041569696400
0.043098026719
0.044638343882
0.046190741901
0.047755315529
0.049332160260
0.050921372338
0.052523048760
0.054137287287
0.055764186443
0.057403845527
0.059056364617
0.060721844575
0.062400387053
0.064092094504
0.065797070181
0.067515418148
0.069247243284
0.070992651294
0.072751748708
0.074524642895
0.076311442063
0.078112255270
0.079927192430
0.081756364319
0.083599882581
0.085457859736
0.087330409187
0.089217645224
0.091119683038
0.093036638718
0.094968629269
0.096915772609
0.098878187584
0.100855993970
0.001039149911
0.002248158704
0.003466649871
0.004694697783
0.005932377393
0.007179764245
0.008436934474
0.009703964810
0.010980932589
0.012267915750
0.013564992845
0.014872243042
0.016189746130
0.017517582522
0.018855833264
0.020204580037
0.021563905161
0.022933891605
0.024314622986
0.025706183577
0.027108658313
0.028522132795
0.029946693294
0.031382426760
0.032829420823
0.034287763802
0.035757544706
0.037238853244
0.038731779829
0.040236415583
0.041752852341
0.043281182660
0.044821499823
0.046373897842
0.047938471470
0.049515316201
0.051104528279
0.052706204701
0.054320443228
0.055947342384
0.057587001468
0.059239520558
0.060905000516
0.062583542994
0.064275250445
0.065980226122
0.067698574089
0.069430399225
0.071175807235
0.072934904649
0.074707798836
0.076494598004
0.078295411211
0.080110348371
0.081939520260
0.083783038522
0.085641015677
0.087513565128
0.089400801165
0.091302838979
0.093219794659
0.095151785210
0.097098928550
0.099061343525
0.101039149911
0.001253280900
0.002462289694
0.003680780860
0.004908828772
0.006146508382
0.007393895234
0.008651065463
0.009918095799
0.011195063578
0.012482046739
0.013779123835
0.015086374032
0.016403877119
0.017731713511
0.019069964253
0.020418711026
0.021778036150
0.023148022594
0.024528753975
0.025920314566
0.027322789302
0.028736263784
0.030160824283
0.031596557749
0.033043551813
0.034501894791
0.035971675695
0.037452984233
0.038945910819
0.040450546572
0.041966983330
0.043495313649
0.045035630812
0.046588028831
0.048152602459
0.049729447191
0.051318659268
0.052920335691
0.054534574217
0.056161473373
0.057801132457
0.059453651547
0.061119131505
0.062797673984
0.064489381434
0.066194357111
0.067912705078
0.069644530215
0.071389938224
0.073149035639
0.074921929825
0.076708728993
0.078509542200
0.080324479361
0.082153651250
0.083997169512
0.085855146666
0.087727696117
0.089614932154
0.091516969968
0.093433925649
0.095365916199
0.097313059539
0.099275474514
0.101253280900
0.001503625390
0.002712634183
0.003931125350
0.005159173261
0.006396852872
0.007644239724
0.008901409952
0.010168440289
0.011445408068
0.012732391229
0.014029468324
0.015336718521
0.016654221608
0.017982058000
0.019320308742
0.020669055515
0.022028380640
0.023398367084
0.024779098464
0.026170659055
0.027573133791
0.028986608273
0.030411168773
0.031846902239
0.033293896302
0.034752239280
0.036222020184
0.037703328723
0.039196255308
0.040700891062
0.042217327820
0.043745658139
0.045285975301
0.046838373321
0.048402946949
0.049979791680
0.051569003758
0.053170680180
0.054784918706
0.056411817862
0.058051476947
0.059703996036
0.061369475994
0.063048018473
0.064739725924
0.066444701600
0.068163049567
0.069894874704
0.071640282714
0.073399380128
0.075172274314
0.076959073482
0.078759886690
0.080574823850
0.082403995739
0.084247514001
0.086105491156
0.087978040606
0.089865276644
0.091767314457
0.093684270138
0.095616260689
0.097563404029
0.099525819004
0.101503625390
0.001796307750
0.003005316543
0.004223807710
0.005451855621
0.006689535232
0.007936922084
0.009194092312
0.010461122649
0.011738090428
0.013025073589
0.014322150684
0.015629400881
0.016946903969
0.018274740361
0.019612991103
0.020961737875
0.022321063000
0.023691049444
0.025071780825
0.026463341416
0.027865816152
0.029279290634
0.030703851133
0.032139584599
0.033586578662
0.035044921641
0.036514702545
0.037996011083
0.039488937668
0.040993573422
0.042510010180
0.044038340499
0.045578657661
0.047131055681
0.048695629309
0.050272474040
0.051861686118
0.053463362540
0.055077601067
0.056704500223
0.058344159307
0.059996678397
0.061662158355
0.063340700833
0.065032408284
0.066737383961
0.068455731927
0.070187557064
0.071932965074
0.073692062488
0.075464956675
0.077251755843
0.079052569050
0.080867506210
0.082696678099
0.084540196361
0.086398173516
0.088270722967
0.090157959004
0.092059996818
0.093976952498
0.095908943049
0.097856086389
0.099818501364
0.101796307750
0.002138488096
0.003347496890
0.004565988056
0.005794035968
0.007031715578
0.008279102430
0.009536272659
0.010803302996
0.012080270774
0.013367253935
0.014664331031
0.015971581228
0.017289084315
0.018616920707
0.019955171449
0.021303918222
0.022663243347
0.024033229790
0.025413961171
0.026805521762
0.028207996498
0.029621470980
0.031046031480
0.032481764946
0.033928759009
0.035387101987
0.036856882891
0.038338191429
0.039831118015
0.041335753768
0.042852190527
0.044380520846
0.045920838008
0.047473236027
0.049037809656
0.050614654387
0.052203866464
0.053805542887
0.055419781413
0.057046680569
0.058686339653
0.060338858743
0.062004338701
0.063682881180
0.065374588631
0.067079564307
0.068797912274
0.070529737411
0.072275145420
0.074034242835
0.075807137021
0.077593936189
0.079394749396
0.081209686557
0.083038858446
0.084882376708
0.086740353863
0.088612903313
0.090500139351
0.092402177164
0.094319132845
0.096251123395
0.098198266736
0.100160681710
0.102138488096
0.002538537451
0.003747546245
0.004966037411
0.006194085323
0.007431764933
0.008679151785
0.009936322014
0.011203352350
0.012480320129
0.013767303290
0.015064380386
0.016371630583
0.017689133670
0.019016970062
0.020355220804
0.021703967577
0.023063292701
0.024433279145
0.025814010526
0.027205571117
0.028608045853
0.030021520335
0.031446080834
0.032881814300
0.034328808364
0.035787151342
0.037256932246
0.038738240784
0.040231167370
0.041735803123
0.043252239881
0.044780570200
0.046320887363
0.047873285382
0.049437859010
0.051014703742
0.052603915819
0.054205592242
0.055819830768
0.057446729924
0.059086389008
0.060738908098
0.062404388056
0.064082930535
0.065774637985
0.067479613662
0.069197961629
0.070929786766
0.072675194775
0.074434292190
0.076207186376
0.077993985544
0.079794798751
0.081609735912
0.083438907801
0.085282426063
0.087140403217
0.089012952668
0.090900188705
0.092802226519
0.094719182200
0.096651172750
0.098598316090
0.100560731065
0.102538537451
0.003006242532
0.004215251325
0.005433742492
0.006661790403
0.007899470013
0.009146856866
0.010404027094
0.011671057431
0.012948025209
0.014235008371
0.015532085466
0.016839335663
0.018156838750
0.019484675142
0.020822925884
0.022171672657
0.023530997782
0.024900984225
0.026281715606
0.027673276197
0.029075750933
0.030489225415
0.031913785915
0.033349519381
0.034796513444
0.036254856422
0.037724637326
0.039205945864
0.040698872450
0.042203508203
0.043719944962
0.045248275281
0.046788592443
0.048340990462
0.049905564091
0.051482408822
0.053071620899
0.054673297322
0.056287535848
0.057914435004
0.059554094088
0.061206613178
0.062872093136
0.064550635615
0.066242343066
0.067947318742
0.069665666709
0.071397491846
0.073142899855
0.074901997270
0.076674891456
0.078461690624
0.080262503831
0.082077440992
0.083906612881
0.085750131143
0.087608108298
0.089480657748
0.091367893786
0.093269931599
0.095186887280
0.097118877830
0.099066021171
0.101028436145
0.103006242532
0.003553045168
0.004762053961
0.005980545128
0.007208593040
0.008446272650
0.009693659502
0.010950829730
0.012217860067
0.013494827846
0.014781811007
0.016078888102
0.017386138299
0.018703641387
0.020031477779
0.021369728521
0.022718475294
0.024077800418
0.025447786862
0.026828518243
0.028220078834
0.029622553570
0.031036028052
0.032460588551
0.033896322017
0.035343316080
0.036801659059
0.038271439963
0.039752748501
0.041245675086
0.042750310840
0.044266747598
0.045795077917
0.047335395080
0.048887793099
0.050452366727
0.052029211458
0.053618423536
0.055220099958
0.056834338485
0.058461237641
0.060100896725
0.061753415815
0.063418895773
0.065097438251
0.066789145702
0.068494121379
0.070212469346
0.071944294482
0.073689702492
0.075448799906
0.077221694093
0.079008493261
0.080809306468
0.082624243628
0.084453415517
0.086296933779
0.088154910934
0.090027460385
0.091914696422
0.093816734236
0.095733689916
0.097665680467
0.099612823807
0.101575238782
0.103553045168
0.004192322217
0.005401331010
0.006619822177
0.007847870088
0.009085549699
0.010332936551
0.011590106779
0.012857137116
0.014134104895
0.015421088056
0.016718165151
0.018025415348
0.019342918436
0.020670754828
0.022009005570
0.023357752342
0.024717077467
0.026087063911
0.027467795292
0.028859355883
0.030261830619
0.031675305101
0.033099865600
0.034535599066
0.035982593129
0.037440936107
0.038910717011
0.040392025550
0.041884952135
0.043389587889
0.044906024647
0.046434354966
0.047974672128
0.049527070148
0.051091643776
0.052668488507
0.054257700585
0.055859377007
0.057473615534
0.059100514690
0.060740173774
0.062392692864
0.064058172821
0.065736715300
0.067428422751
0.069133398428
0.070851746394
0.072583571531
0.074328979541
0.076088076955
0.077860971142
0.079647770310
0.081448583517
0.083263520677
0.085092692566
0.086936210828
0.088794187983
0.090666737433
0.092553973471
0.094456011284
0.096372966965
0.098304957516
0.100252100856
0.102214515831
0.104192322217
0.004939712807
0.006148721600
0.007367212767
0.008595260678
0.009832940289
0.011080327141
0.012337497369
0.013604527706
0.014881495485
0.016168478646
0.017465555741
0.018772805938
0.020090309026
0.021418145418
0.022756396160
0.024105142932
0.025464468057
0.026834454501
0.028215185882
0.029606746473
0.031009221209
0.032422695691
0.033847256190
0.035282989656
0.036729983719
0.038188326698
0.039658107602
0.041139416140
0.042632342725