# vtk DataFile Version 2.0
TITLE = "Quad data"
ASCII
DATASET STRUCTURED_GRID
DIMENSIONS 33 33 1
POINTS 1089 FLOAT
0.000000 0.000000 0.000000
0.000000 0.031250 0.000000
0.000000 0.062500 0.000000
0.000000 0.093750 0.000000
0.000000 0.125000 0.000000
0.000000 0.156250 0.000000
0.000000 0.187500 0.000000
0.000000 0.218750 0.000000
0.000000 0.250000 0.000000
0.000000 0.281250 0.000000
0.000000 0.312500 0.000000
0.000000 0.343750 0.000000
0.000000 0.375000 0.000000
0.000000 0.406250 0.000000
0.000000 0.437500 0.000000
0.000000 0.468750 0.000000
0.000000 0.500000 0.000000
0.000000 0.531250 0.000000
0.000000 0.562500 0.000000
0.000000 0.593750 0.000000
0.000000 0.625000 0.000000
0.000000 0.656250 0.000000
0.000000 0.687500 0.000000
0.000000 0.718750 0.000000
0.000000 0.750000 0.000000
0.000000 0.781250 0.000000
0.000000 0.812500 0.000000
0.000000 0.843750 0.000000
0.000000 0.875000 0.000000
0.000000 0.906250 0.000000
0.000000 0.937500 0.000000
0.000000 0.968750 0.000000
0.000000 1.000000 0.000000
0.031250 0.000000 0.000000
0.031250 0.031250 0.000000
0.031250 0.062500 0.000000
0.031250 0.093750 0.000000
0.031250 0.125000 0.000000
0.031250 0.156250 0.000000
0.031250 0.187500 0.000000
0.031250 0.218750 0.000000
0.031250 0.250000 0.000000
0.031250 0.281250 0.000000
0.031250 0.312500 0.000000
0.031250 0.343750 0.000000
0.031250 0.375000 0.000000
0.031250 0.406250 0.000000
0.031250 0.437500 0.000000
0.031250 0.468750 0.000000
0.031250 0.500000 0.000000
0.031250 0.531250 0.000000
0.031250 0.562500 0.000000
0.031250 0.593750 0.000000
0.031250 0.625000 0.000000
0.031250 0.656250 0.000000
0.031250 0.687500 0.000000
0.031250 0.718750 0.000000
0.031250 0.750000 0.000000
0.031250 0.781250 0.000000
0.031250 0.812500 0.000000
0.031250 0.843750 0.000000
0.031250 0.875000 0.000000
0.031250 0.906250 0.000000
0.031250 0.937500 0.000000
0.031250 0.968750 0.000000
0.031250 1.000000 0.000000
0.062500 0.000000 0.000000
0.062500 0.031250 0.000000
0.062500 0.062500 0.000000
0.062500 0.093750 0.000000
0.062500 0.125000 0.000000
0.062500 0.156250 0.000000
0.062500 0.187500 0.000000
0.062500 0.218750 0.000000
0.062500 0.250000 0.000000
0.062500 0.281250 0.000000
0.062500 0.312500 0.000000
0.062500 0.343750 0.000000
0.062500 0.375000 0.000000
0.062500 0.406250 0.000000
0.062500 0.437500 0.000000
0.062500 0.468750 0.000000
0.062500 0.500000 0.000000
0.062500 0.531250 0.000000
0.062500 0.562500 0.000000
0.062500 0.593750 0.000000
0.062500 0.625000 0.000000
0.062500 0.656250 0.000000
0.062500 0.687500 0.000000
0.062500 0.718750 0.000000
0.062500 0.750000 0.000000
0.062500 0.781250 0.000000
0.062500 0.812500 0.000000
0.062500 0.843750 0.000000
0.062500 0.875000 0.000000
0.062500 0.906250 0.000000
0.062500 0.937500 0.000000
0.062500 0.968750 0.000000
0.062500 1.000000 0.000000
0.093750 0.000000 0.000000
0.093750 0.031250 0.000000
0.093750 0.062500 0.000000
0.093750 0.093750 0.000000
0.093750 0.125000 0.000000
0.093750 0.156250 0.000000
0.093750 0.187500 0.000000
0.093750 0.218750 0.000000
0.093750 0.250000 0.000000
0.093750 0.281250 0.000000
0.093750 0.312500 0.000000
0.093750 0.343750 0.000000
0.093750 0.375000 0.000000
0.093750 0.406250 0.000000
0.093750 0.437500 0.000000
0.093750 0.468750 0.000000
0.093750 0.500000 0.000000
0.093750 0.531250 0.000000
0.093750 0.562500 0.000000
0.093750 0.593750 0.000000
0.093750 0.625000 0.000000
0.093750 0.656250 0.000000
0.093750 0.687500 0.000000
0.093750 0.718750 0.000000
0.093750 0.750000 0.000000
0.093750 0.781250 0.000000
0.093750 0.812500 0.000000
0.093750 0.843750 0.000000
0.093750 0.875000 0.000000
0.093750 0.906250 0.000000
0.093750 0.937500 0.000000
0.093750 0.968750 0.000000
0.093750 1.000000 0.000000
0.125000 0.000000 0.000000
0.125000 0.031250 0.000000
0.125000 0.062500 0.000000
0.125000 0.093750 0.000000
0.125000 0.125000 0.000000
0.125000 0.156250 0.000000
0.125000 0.187500 0.000000
0.125000 0.218750 0.000000
0.125000 0.250000 0.000000
0.125000 0.281250 0.000000
0.125000 0.312500 0.000000
0.125000 0.343750 0.000000
0.125000 0.375000 0.000000
0.125000 0.406250 0.000000
0.125000 0.437500 0.000000
0.125000 0.468750 0.000000
0.125000 0.500000 0.000000
0.125000 0.531250 0.000000
0.125000 0.562500 0.000000
0.125000 0.593750 0.000000
0.125000 0.625000 0.000000
0.125000 0.656250 0.000000
0.125000 0.687500 0.000000
0.125000 0.718750 0.000000
0.125000 0.750000 0.000000
0.125000 0.781250 0.000000
0.125000 0.812500 0.000000
0.125000 0.843750 0.000000
0.125000 0.875000 0.000000
0.125000 0.906250 0.000000
0.125000 0.937500 0.000000
0.125000 0.968750 0.000000
0.125000 1.000000 0.000000
0.156250 0.000000 0.000000
0.156250 0.031250 0.000000
0.156250 0.062500 0.000000
0.156250 0.093750 0.000000
0.156250 0.125000 0.000000
0.156250 0.156250 0.000000
0.156250 0.187500 0.000000
0.156250 0.218750 0.000000
0.156250 0.250000 0.000000
0.156250 0.281250 0.000000
0.156250 0.312500 0.000000
0.156250 0.343750 0.000000
0.156250 0.375000 0.000000
0.156250 0.406250 0.000000
0.156250 0.437500 0.000000
0.156250 0.468750 0.000000
0.156250 0.500000 0.000000
0.156250 0.531250 0.000000
0.156250 0.562500 0.000000
0.156250 0.593750 0.000000
0.156250 0.625000 0.000000
0.156250 0.656250 0.000000
0.156250 0.687500 0.000000
0.156250 0.718750 0.000000
0.156250 0.750000 0.000000
0.156250 0.781250 0.000000
0.156250 0.812500 0.000000
0.156250 0.843750 0.000000
0.156250 0.875000 0.000000
0.156250 0.906250 0.000000
0.156250 0.937500 0.000000
0.156250 0.968750 0.000000
0.156250 1.000000 0.000000
0.187500 0.000000 0.000000
0.187500 0.031250 0.000000
0.187500 0.062500 0.000000
0.187500 0.093750 0.000000
0.187500 0.125000 0.000000
0.187500 0.156250 0.000000
0.187500 0.187500 0.000000
0.187500 0.218750 0.000000
0.187500 0.250000 0.000000
0.187500 0.281250 0.000000
0.187500 0.312500 0.000000
0.187500 0.343750 0.000000
0.187500 0.375000 0.000000
0.187500 0.406250 0.000000
0.187500 0.437500 0.000000
0.187500 0.468750 0.000000
0.187500 0.500000 0.000000
0.187500 0.531250 0.000000
0.187500 0.562500 0.000000
0.187500 0.593750 0.000000
0.187500 0.625000 0.000000
0.187500 0.656250 0.000000
0.187500 0.687500 0.000000
0.187500 0.718750 0.000000
0.187500 0.750000 0.000000
0.187500 0.781250 0.000000
0.187500 0.812500 0.000000
0.187500 0.843750 0.000000
0.187500 0.875000 0.000000
0.187500 0.906250 0.000000
0.187500 0.937500 0.000000
0.187500 0.968750 0.000000
0.187500 1.000000 0.000000
0.218750 0.000000 0.000000
0.218750 0.031250 0.000000
0.218750 0.062500 0.000000
0.218750 0.093750 0.000000
0.218750 0.125000 0.000000
0.218750 0.156250 0.000000
0.218750 0.187500 0.000000
0.218750 0.218750 0.000000
0.218750 0.250000 0.000000
0.218750 0.281250 0.000000
0.218750 0.312500 0.000000
0.218750 0.343750 0.000000
0.218750 0.375000 0.000000
0.218750 0.406250 0.000000
0.218750 0.437500 0.000000
0.218750 0.468750 0.000000
0.218750 0.500000 0.000000
0.218750 0.531250 0.000000
0.218750 0.562500 0.000000
0.218750 0.593750 0.000000
0.218750 0.625000 0.000000
0.218750 0.656250 0.000000
0.218750 0.687500 0.000000
0.218750 0.718750 0.000000
0.218750 0.750000 0.000000
0.218750 0.781250 0.000000
0.218750 0.812500 0.000000
0.218750 0.843750 0.000000
0.218750 0.875000 0.000000
0.218750 0.906250 0.000000
0.218750 0.937500 0.000000
0.218750 0.968750 0.000000
0.218750 1.000000 0.000000
0.250000 0.000000 0.000000
0.250000 0.031250 0.000000
0.250000 0.062500 0.000000
0.250000 0.093750 0.000000
0.250000 0.125000 0.000000
0.250000 0.156250 0.000000
0.250000 0.187500 0.000000
0.250000 0.218750 0.000000
0.250000 0.250000 0.000000
0.250000 0.281250 0.000000
0.250000 0.312500 0.000000
0.250000 0.343750 0.000000
0.250000 0.375000 0.000000
0.250000 0.406250 0.000000
0.250000 0.437500 0.000000
0.250000 0.468750 0.000000
0.250000 0.500000 0.000000
0.250000 0.531250 0.000000
0.250000 0.562500 0.000000
0.250000 0.593750 0.000000
0.250000 0.625000 0.000000
0.250000 0.656250 0.000000
0.250000 0.687500 0.000000
0.250000 0.718750 0.000000
0.250000 0.750000 0.000000
0.250000 0.781250 0.000000
0.250000 0.812500 0.000000
0.250000 0.843750 0.000000
0.250000 0.875000 0.000000
0.250000 0.906250 0.000000
0.250000 0.937500 0.000000
0.250000 0.968750 0.000000
0.250000 1.000000 0.000000
0.281250 0.000000 0.000000
0.281250 0.031250 0.000000
0.281250 0.062500 0.000000
0.281250 0.093750 0.000000
0.281250 0.125000 0.000000
0.281250 0.156250 0.000000
0.281250 0.187500 0.000000
0.281250 0.218750 0.000000
0.281250 0.250000 0.000000
0.281250 0.281250 0.000000
0.281250 0.312500 0.000000
0.281250 0.343750 0.000000
0.281250 0.375000 0.000000
0.281250 0.406250 0.000000
0.281250 0.437500 0.000000
0.281250 0.468750 0.000000
0.281250 0.500000 0.000000
0.281250 0.531250 0.000000
0.281250 0.562500 0.000000
0.281250 0.593750 0.000000
0.281250 0.625000 0.000000
0.281250 0.656250 0.000000
0.281250 0.687500 0.000000
0.281250 0.718750 0.000000
0.281250 0.750000 0.000000
0.281250 0.781250 0.000000
0.281250 0.812500 0.000000
0.281250 0.843750 0.000000
0.281250 0.875000 0.000000
0.281250 0.906250 0.000000
0.281250 0.937500 0.000000
0.281250 0.968750 0.000000
0.281250 1.000000 0.000000
0.312500 0.000000 0.000000
0.312500 0.031250 0.000000
0.312500 0.062500 0.000000
0.312500 0.093750 0.000000
0.312500 0.125000 0.000000
0.312500 0.156250 0.000000
0.312500 0.187500 0.000000
0.312500 0.218750 0.000000
0.312500 0.250000 0.000000
0.312500 0.281250 0.000000
0.312500 0.312500 0.000000
0.312500 0.343750 0.000000
0.312500 0.375000 0.000000
0.312500 0.406250 0.000000
0.312500 0.437500 0.000000
0.312500 0.468750 0.000000
0.312500 0.500000 0.000000
0.312500 0.531250 0.000000
0.312500 0.562500 0.000000
0.312500 0.593750 0.000000
0.312500 0.625000 0.000000
0.312500 0.656250 0.000000
0.312500 0.687500 0.000000
0.312500 0.718750 0.000000
0.312500 0.750000 0.000000
0.312500 0.781250 0.000000
0.312500 0.812500 0.000000
0.312500 0.843750 0.000000
0.312500 0.875000 0.000000
0.312500 0.906250 0.000000
0.312500 0.937500 0.000000
0.312500 0.968750 0.000000
0.312500 1.000000 0.000000
0.343750 0.000000 0.000000
0.343750 0.031250 0.000000
0.343750 0.062500 0.000000
[...]
POINT_DATA 1089
SCALARS phi FLOAT 1
LOOKUP_TABLE default
0.000000000000
0.000000953674
0.000015258789
0.000077247620
0.000244140625
0.000596046448
0.001235961914
0.002289772034
0.003906250000
0.006257057190
0.009536743164
0.013962745667
0.019775390625
0.027237892151
0.036636352539
0.048279762268
0.062500000000
0.079651832581
0.100112915039
0.124283790588
0.152587890625
0.185471534729
0.223403930664
0.266877174377
0.316406250000
0.372529029846
0.435806274414
0.506821632385
0.586181640625
0.674515724182
0.772476196289
0.880738258362
1.000000000000
0.000000953674
-0.821912159394
-0.612833136225
-0.375714257464
-0.189049236864
-0.077344777775
-0.024239680480
-0.002885765216
0.006028162689
0.011989751963
0.018649647992
0.027338933357
0.038730231364
0.053380624009
0.071864077932
0.094796373051
0.122838808539
0.156698690675
0.197129469054
0.244930876954
0.300949114835
0.366077089689
0.441254727931
0.527469390560
0.625756437732
0.737200023314
0.862934264617
1.004145067697
1.162073195850
1.338019936190
1.533358838675
1.749563488965
0.994141578674
0.000015258789
-0.612833136225
-0.456748674279
-0.279908974810
-0.140785242240
-0.057577976483
-0.018009029316
-0.001980376049
0.004987319409
0.010054107574
0.016037149071
0.024035412437
0.034668835767
0.048483175989
0.066048678278
0.087978630948
0.114932154761
0.147614644272
0.186777992667
0.233220865354
0.287789056950
0.351375952563
0.424923125093
0.509421118597
0.605910497245
0.715483289665
0.839285048724
0.978517915555
1.134445403478
1.308400260086
1.501797990809
1.716160578648
0.976577758789
0.000077247620
-0.375714257464
-0.279908974810
-0.171551782276
-0.086453772049
-0.035696532506
-0.011650037169
-0.001877371891
0.002621830221
0.006370973030
0.011244946429
0.018081685172
0.027442892422
0.039862552496
0.055907505976
0.076188881965
0.101363895582
0.132136249371
0.169256449493
0.213522204603
0.265778937785
0.326920438437
0.397889694281
0.479679963899
0.573336180847
0.679956828624
0.800696502873
0.936769500306
1.089454962555
1.260104355077
1.450152248472
1.661130881488
0.947342872620
0.000244140625
-0.189049236864
-0.140785242240
-0.086453772049
-0.044059959312
-0.019100654271
-0.007609908858
-0.003179336867
-0.001117777777
0.001025557554
0.004385578445
0.009595668341
0.017172110613
0.027639743181
0.041562670094
0.059550161297
0.082257715201
0.110387457958
0.144688551048
0.185957701942
0.235039805665
0.292828747602
0.360268410319
0.438353944801
0.528133391320
0.630709769728
0.747243806079
0.878957520369
1.027138953193
1.193148298473
1.378425469608
1.584498274687
0.906494140625
0.000596046448
-0.077344777775
-0.057577976483
-0.035696532506
-0.019100654271
-0.009966880481
-0.006518697462
-0.005943414985
-0.006118842542
-0.005829263914
-0.004380449778
-0.001260761837
0.004018932070
0.011977725214
0.023177643991
0.038226304140
0.057777578768
0.082532031468
0.113237408102
0.150689240248
0.195731587115
0.249257947030
0.312212379220
0.385590889342
0.470443148197
0.567874631727
0.679049288819
0.805192852185
0.947596883445
1.107623535889
1.286710734256
1.486376886464
0.854111671448
0.001235961914
-0.024239680480
-0.018009029316
-0.011650037169
-0.007609908858
-0.006518697462
-0.007627671267
-0.009807378320
-0.012137469238
-0.013979808764
-0.014846228004
-0.014282160569
-0.011811515774
-0.006918420723
0.000957493749
0.012422273452
0.028128162093
0.048774083688
0.075106203474
0.107918601350
0.148054083783
0.196405163803
0.253915244940
0.321580052433
0.400449362691
0.491629087741
0.596283770491
0.715639529556
0.850987441680
1.003687237960
1.175170985348
1.366946122051
0.790298461914
0.002289772034
-0.002885765216
-0.001980376049
-0.001877371891
-0.003179336867
-0.005943414985
-0.009807378320
-0.014271531419
-0.018864777186
-0.023164897644
-0.026760932261
-0.029220017503
-0.030071491666
-0.028801413164
-0.024850912284
-0.017615535906
-0.006444753565
0.009358569274
0.030538781078
0.057888163428
0.092247783881
0.134508509181
0.185612208744
0.246553181392
0.318379839844
0.402196684996
0.499166591372
0.610513399587
0.737524761858
0.881555102402
1.044028434172
1.226440642682
0.715180397034
0.003906250000
0.006028162689
0.004987319409
0.002621830221
-0.001117777777
-0.006118842542
-0.012137469238
-0.018864777186
-0.025965688311
-0.033083565660
-0.039831246178
-0.045783029249
-0.050470647564
-0.053381653971
-0.053958696914
-0.051599012601
-0.045653924526
-0.035428288625
-0.020179856238
0.000881467241
0.028594490035
0.063847751118
0.107580710942
0.160785140042
0.224506727515
0.299846924909
0.387965027340
0.490080469108
0.607475272075
0.741496530567
0.893558754177
1.065145844249
0.628906250000
0.006257057190
0.011989751963
0.010054107574
0.006370973030
0.001025557554
-0.005829263914
-0.013979808764
-0.023164897644
-0.033083565660
-0.043395970987
-0.053721523242
-0.063637094347
-0.072675942433
-0.080327074201
-0.086034758751
-0.089198058183
-0.089170323556
-0.085258630947
-0.076723137971
-0.062776341767
-0.042582219099
-0.015255228885
0.020140842241
0.064594209182
0.119146606276
0.184895000052
0.262993489948
0.354655370184
0.461155298656
0.583831486415
0.724087792144
0.883395596459
0.531647682190
0.009536743164
0.018649647992
0.016037149071
0.011244946429
0.004385578445
-0.004380449778
-0.014846228004
-0.026760932261
-0.039831246178
-0.053721523242
-0.068053367282
-0.082405131515
-0.096311472637
-0.109262937265
-0.120705542284
-0.130040325428
-0.136622850192
-0.139762650294
-0.138722598189
-0.132718181280
-0.120916668955
-0.102436153614
-0.076344449654
-0.041657836666
0.002660362615
0.057701371791
0.124612709058
0.204600070674
0.298929308072
0.408928438785
0.535989618981
0.681571008331
0.423599243164
0.013962745667
0.027338933357
0.024035412437
0.018081685172
0.009595668341
-0.001260761837
-0.014282160569
-0.029220017503
-0.045783029249
-0.063637094347
-0.082405131515
-0.101666810863
-0.120958238089
-0.139771602805
-0.157554791628
-0.173710961753
-0.187598067074
-0.198528325935
-0.205767617576
-0.208534792989
-0.206000885283
-0.197288204629
-0.181469303801
-0.157565802512
-0.124547062601
-0.081328712197
-0.026771025365
0.040322825642
0.121208616698
0.217202977549
0.329685312832
0.460099699490
0.304978370667
0.019775390625
0.038730231364
0.034668835767
0.027442892422
0.017172110613
0.004018932070
-0.011811515774
-0.030071491666
-0.050470647564
-0.072675942433
-0.096311472637
-0.120958238089
-0.146153859607
-0.171392256550
-0.196123287831
-0.219752354308
-0.241639956396
-0.261101197711
-0.277405223332
-0.289774579842
-0.297384483449
-0.299361982313
-0.294784999847
-0.282681247414
-0.262026997884
-0.231745716047
-0.190706548082
-0.137722679711
-0.071549580438
0.009116842292
0.105642152569
0.219455336334
0.176025390625
0.027237892151
0.053380624009
0.048483175989
0.039862552496
0.027639743181
0.011977725214
-0.006918420723
-0.028801413164
-0.053381653971
-0.080327074201
-0.109262937265
-0.139771602805
-0.171392256550
-0.203620609805
-0.235908569091
-0.267663872999
-0.298249690216
-0.326984170140
-0.353139935501
-0.375943504887
-0.394574632062
-0.408165548429
-0.415800095081
-0.416512731789
-0.409287412174
-0.393056317394
-0.366698444911
-0.329038054170
-0.278842976555
-0.214822801908
-0.135626956703
-0.039842688374
0.037003517151
0.036636352539
0.071864077932
0.066048678278
0.055907505976
0.041562670094
0.023177643991
0.000957493749
-0.024850912284
-0.053958696914
-0.086034758751
-0.120705542284
-0.157554791628
-0.196123287831
-0.235908569091
-0.276364631633
-0.316901606827
-0.356885407971
-0.395637338212
-0.432433649296
-0.466505039367
-0.497036076745
-0.523164535623
-0.543980629013
-0.558526124186
-0.565793326487
-0.564723918953
-0.554207647756
-0.533080847094
-0.500124801609
-0.454063949113
-0.393563930768
-0.317229499011
-0.111801147461
0.048279762268
0.094796373051
0.087978630948
0.076188881965
0.059550161297
0.038226304140
0.012422273452
-0.017615535906
-0.051599012601
-0.089198058183
-0.130040325428
-0.173710961753
-0.219752354308
-0.267663872999
-0.316901606827
-0.366878087636
-0.416961994001
-0.466477826498
-0.514705544123
-0.560880150137
-0.604191214007
-0.643782314627
-0.678750388462
-0.708144965032
-0.730967271341
-0.746169186734
-0.752652030593
-0.749265167530
-0.734804418495
-0.708010271520
-0.667565892481
-0.612094943676
-0.270079612732
0.062500000000
0.122838808539
0.114932154761
0.101363895582
0.082257715201
0.057777578768
0.028128162093
-0.006444753565
-0.045653924526
-0.089170323556
-0.136622850192
-0.187598067074
-0.241639956396
-0.298249690216
-0.356885407971
-0.416961994001
-0.477850847095
-0.538879633151
-0.599332010799
-0.658447318328
-0.715420208379
-0.769400214674
-0.819491232565
-0.864750892522
-0.904189803146
-0.936770638240
-0.961407041396
-0.976962322246
-0.982247921595
-0.976021628766
-0.956985543972
-0.923783791016
-0.437500000000
0.079651832581
0.156698690675
0.147614644272
0.132136249371
0.110387457958
0.082532031468
0.048774083688
0.009358569274
-0.035428288625
-0.085258630947
-0.139762650294
-0.198528325935
-0.261101197711
-0.326984170140
-0.395637338212
-0.466477826498
-0.538879633151
-0.612173469952
-0.685646588635
-0.758542582245
-0.830061148089
-0.899357795948
-0.965543481588
-1.027684141292
-1.084800098504
-1.135865309081
-1.179806407992
-1.215501518646
-1.241778787807
-1.257414615681
-1.261131563398
-1.251595938809
-0.613707542419
0.100112915039
0.197129469054
0.186777992667
0.169256449493
0.144688551048
0.113237408102
0.075106203474
0.030538781078
-0.020179856238
-0.076723137971
-0.138722598189
-0.205767617576
-0.277405223332
-0.353139935501
-0.432433649296
-0.514705544123
-0.599332010799
-0.685646588635
-0.772939903626
-0.860459597546
-0.947410235344
-1.032953174645
-1.116206376258
-1.196244128404
-1.272096650127
-1.342749531448
-1.407142960430
-1.464170681924
-1.512678631800
-1.551463196532
-1.579269063627
-1.594786654862
-0.798324584961
0.124283790588
0.244930876954
0.233220865354
0.213522204603
0.185957701942
0.150689240248
0.107918601350
0.057888163428
0.000881467241
-0.062776341767
-0.132718181280
-0.208534792989
-0.289774579842
-0.375943504887
-0.466505039367
-0.560880150137
-0.658447318328
-0.758542582245
-0.860459597546
-0.963449706636
-1.066722006667
-1.169443401333
-1.270738615532
-1.369690143692
-1.465338092118
-1.556679863581
-1.642669619481
-1.722217443617
-1.794188125061
-1.857399480686
-1.910620155359
-1.952566873477
-0.990950584412
0.152587890625
0.300949114835
0.287789056950
0.265778937785
0.235039805665
0.195731587115
0.148054083783
0.092247783881
0.028594490035
-0.042582219099
-0.120916668955
-0.206000885283
-0.297384483449
-0.394574632062
-0.497036076745
-0.604191214007
-0.715420208379
-0.830061148089
-0.947410235344
-1.066722006667
-1.187209576338
-1.308044891444
-1.428358979913
-1.547242162517
-1.663744185875
-1.776874215908
-1.885600610793
-1.988850371716
-2.085508153149
-2.174414709305
-2.254364669118
-2.324103577469
-1.191162109375
0.185471534729
0.366077089689
0.351375952563
0.326920438437
0.292828747602
0.249257947030
0.196405163803
0.134508509181
0.063847751118
-0.015255228885
-0.102436153614
-0.197288204629
-0.299361982313
-0.408165548429
-0.523164535623
-0.643782314627
-0.769400214674
-0.899357795948
-1.032953174645
-1.169443401333
-1.308044891444
-1.447933902385
-1.588247044075
-1.728081797713
-1.866497000075
-2.002513226759
-2.135112977494
-2.263240531823
-2.385801309536
-2.501660547786
-2.609641111804
-2.708520308001
-1.398512840271
0.223403930664
0.441254727931
0.424923125093
0.397889694281
0.360268410319
0.312212379220
0.253915244940
0.185612208744
0.107580710942
0.020140842241
-0.076344449654
-0.181469303801
-0.294784999847
-0.415800095081
-0.543980629013
-0.678750388462
-0.819491232565
-0.965543481588
-1.116206376258
-1.270738615532
-1.428358979913
-1.588247044075
-1.749543975405
-1.911353402532
-2.072742317771
-2.232741947266
-2.390348480458
-2.544523496183
-2.694193860996
-2.838250819194
-2.975547969222
-3.104897865637
-1.612533569336
0.266877174377
0.527469390560
0.509421118597
0.479679963899
0.438353944801
0.385590889342
0.321580052433
0.246553181392
0.160785140042
0.064594209182
-0.041657836666
-0.157565802512
-0.282681247414
-0.416512731789
-0.558526124186
-0.708144965032
-0.864750892522
-1.027684141292
-1.196244128404
-1.369690143692
-1.547242162517
-1.728081797713
-1.911353402532
-2.096165325498
-2.281591297734
-2.466671898910
-2.650415993933
-2.831801954149
-3.009778373986
-3.183263878658
-3.351145525882
-3.512275302645
-1.832732200623
0.316406250000
0.625756437732
0.605910497245
0.573336180847
0.528133391320
0.470443148197
0.400449362691
0.318379839844
0.224506727515
0.119146606276
0.002660362615
-0.124547062601
-0.262026997884
-0.409287412174
-0.565793326487
-0.730967271341
-0.904189803146
-1.084800098504
-1.272096650127
-1.465338092118
-1.663744185875
-1.866497000075
-2.072742317771
-2.281591297734
-2.492122401333
-2.703383562993
-2.914394521193
-3.124149124533
-3.331617271491
-3.535745932718
-3.735458476066
-3.929651371881
-2.058593750000
0.372529029846
0.737200023314
0.715483289665
0.679956828624
0.630709769728
0.567874631727
0.491629087741
0.402196684996
0.299846924909
0.184895000052
0.057701371791
-0.081328712197
-0.231745716047
-0.393056317394
-0.564723918953
-0.746169186734
-0.936770638240
-1.135865309081
-1.342749531448
-1.556679863581
-1.776874215908
-2.002513226759
-2.232741947266
-2.466671898910
-2.703383562993
-2.941929339948
-3.181336961439
-3.420613224046
-3.658747704376
-3.894715776348
-4.127479781595
-4.355986719847
-2.289580345154
0.435806274414
0.862934264617
0.839285048724
0.800696502873
0.747243806079
0.679049288819
0.596283770491
0.499166591372
0.387965027340
0.262993489948
0.124612709058
-0.026771025365
-0.190706548082
-0.366698444911
-0.554207647756
-0.752652030593
-0.961407041396
-1.179806407992
-1.407142960430
-1.642669619481
-1.885600610793
-2.135112977494
-2.390348480458
-2.650415993933
-2.914394521193
-3.181336961439
-3.450274736227
-3.720223293071
-3.990188277348
-4.259171695376
-4.526176563974
-4.790207353533
-2.525131225586
0.506821632385
1.004145067697
0.978517915555
0.936769500306
0.878957520369
0.805192852185
0.715639529556
0.610513399587
0.490080469108
0.354655370184
0.204600070674
0.040322825642
-0.137722679711
-0.329038054170
-0.533080847094
-0.749265167530
-0.976962322246
-1.215501518646
-1.464170681924
-1.722217443617
-1.988850371716
-2.263240531823
-2.544523496183
-2.831801954149
-3.124149124533
-3.420613224046
-3.720223293071
-4.021996681316
-4.324948357202
-4.628101725048
-4.930499449433
-5.231210424623
-2.764662742615
0.586181640625
1.162073195850
1.134445403478
1.089454962555
1.027138953193
0.947596883445
0.850987441680
0.737524761858
0.607475272075
0.461155298656
0.298929308072
0.121208616698
-0.071549580438
-0.278842976555
-0.500124801609
-0.734804418495
-0.982247921595
-1.241778787807
-1.512678631800
-1.794188125061
-2.085508153149
-2.385801309536
-2.694193860996
-3.009778373986
-3.331617271491
-3.658747704376
-3.990188277348
-4.324948357202
-4.662040841060
-5.000499134595
-5.339398019630
-5.677874557814
-3.007568359375
0.674515724182
1.338019936190
1.308400260086
1.260104355077
1.193148298473
1.107623535889
1.003687237960
0.881555102402
0.741496530567
0.583831486415
0.408928438785
0.217202977549
0.009116842292
-0.214822801908
-0.454063949113
-0.708010271520
-0.976021628766
-1.257414615681
-1.551463196532
-1.857399480686
-2.174414709305
-2.501660547786
-2.838250819194
-3.183263878658
-3.535745932718
-3.894715776348
-4.259171695376
-4.628101725048
-5.000499134595
-5.375385897056
-5.751847465588
-6.129079935238
-3.253218650818
0.772476196289
1.533358838675
1.501797990809
1.450152248472
1.378425469608
1.286710734256
1.175170985348
1.044028434172
0.893558754177
0.724087792144
0.535989618981
0.329685312832
0.105642152569
-0.135626956703
-0.393563930768
-0.667565892481
-0.956985543972
-1.261131563398
-1.579269063627
-1.910620155359
-2.254364669118
-2.609641111804
-2.975547969222
-3.351145525882
-3.735458476066
-4.127479781595
-4.526176563974
-4.930499449433
-5.339398019630
-5.751847465588
-6.166896214083
-6.583751663673
-3.500961303711
0.880738258362
1.749563488965
1.716160578648
1.661130881488
1.584498274687
1.486376886464
1.366946122051
1.226440642682
1.065145844249
0.883395596459
0.681571008331
0.460099699490
0.219455336334
-0.039842688374
-0.317229499011
-0.612094943676
-0.923783791016
-1.251595938809
-1.594786654862
-1.952566873477
-2.324103577469
-2.708520308001
-3.104897865637
-3.512275302645
-3.929651371881
-4.355986719847
-4.790207353533
-5.231210424623
-5.677874557814
-6.129079935238
-6.583751663673
-7.040965557942
-3.750121116638
1.000000000000
0.994141578674
0.976577758789
0.947342872620
0.906494140625
0.854111671448
0.790298461914
0.715180397034
0.628906250000
0.531647682190
0.423599243164
0.304978370667
0.176025390625
0.037003517151
-0.111801147461
-0.270079612732
-0.437500000000
-0.613707542419
-0.798324584961
-0.990950584412
-1.191162109375
-1.398512840271
-1.612533569336
-1.832732200623
-2.058593750000
-2.289580345154
-2.525131225586
-2.764662742615
-3.007568359375
-3.253218650818
-3.500961303711
-3.750121116638
-4.000000000000
