# vtk DataFile Version 2.0
TITLE = "Quad data"
ASCII
DATASET STRUCTURED_GRID
DIMENSIONS 33 33 1
POINTS 1089 FLOAT
0.000000 0.000000 0.000000
0.000000 0.031250 0.000000
0.000000 0.062500 0.000000
0.000000 0.093750 0.000000
0.000000 0.125000 0.000000
0.000000 0.156250 0.000000
0.000000 0.187500 0.000000
0.000000 0.218750 0.000000
0.000000 0.250000 0.000000
0.000000 0.281250 0.000000
0.000000 0.312500 0.000000
0.000000 0.343750 0.000000
0.000000 0.375000 0.000000
0.000000 0.406250 0.000000
0.000000 0.437500 0.000000
0.000000 0.468750 0.000000
0.000000 0.500000 0.000000
0.000000 0.531250 0.000000
0.000000 0.562500 0.000000
0.000000 0.593750 0.000000
0.000000 0.625000 0.000000
0.000000 0.656250 0.000000
0.000000 0.687500 0.000000
0.000000 0.718750 0.000000
0.000000 0.750000 0.000000
0.000000 0.781250 0.000000
0.000000 0.812500 0.000000
0.000000 0.843750 0.000000
0.000000 0.875000 0.000000
0.000000 0.906250 0.000000
0.000000 0.937500 0.000000
0.000000 0.968750 0.000000
0.000000 1.000000 0.000000
0.031250 0.000000 0.000000
0.031250 0.031250 0.000000
0.031250 0.062500 0.000000
0.031250 0.093750 0.000000
0.031250 0.125000 0.000000
0.031250 0.156250 0.000000
0.031250 0.187500 0.000000
0.031250 0.218750 0.000000
0.031250 0.250000 0.000000
0.031250 0.281250 0.000000
0.031250 0.312500 0.000000
0.031250 0.343750 0.000000
0.031250 0.375000 0.000000
0.031250 0.406250 0.000000
0.031250 0.437500 0.000000
0.031250 0.468750 0.000000
0.031250 0.500000 0.000000
0.031250 0.531250 0.000000
0.031250 0.562500 0.000000
0.031250 0.593750 0.000000
0.031250 0.625000 0.000000
0.031250 0.656250 0.000000
0.031250 0.687500 0.000000
0.031250 0.718750 0.000000
0.031250 0.750000 0.000000
0.031250 0.781250 0.000000
0.031250 0.812500 0.000000
0.031250 0.843750 0.000000
0.031250 0.875000 0.000000
0.031250 0.906250 0.000000
0.031250 0.937500 0.000000
0.031250 0.968750 0.000000
0.031250 1.000000 0.000000
0.062500 0.000000 0.000000
0.062500 0.031250 0.000000
0.062500 0.062500 0.000000
0.062500 0.093750 0.000000
0.062500 0.125000 0.000000
0.062500 0.156250 0.000000
0.062500 0.187500 0.000000
0.062500 0.218750 0.000000
0.062500 0.250000 0.000000
0.062500 0.281250 0.000000
0.062500 0.312500 0.000000
0.062500 0.343750 0.000000
0.062500 0.375000 0.000000
0.062500 0.406250 0.000000
0.062500 0.437500 0.000000
0.062500 0.468750 0.000000
0.062500 0.500000 0.000000
0.062500 0.531250 0.000000
0.062500 0.562500 0.000000
0.062500 0.593750 0.000000
0.062500 0.625000 0.000000
0.062500 0.656250 0.000000
0.062500 0.687500 0.000000
0.062500 0.718750 0.000000
0.062500 0.750000 0.000000
0.062500 0.781250 0.000000
0.062500 0.812500 0.000000
0.062500 0.843750 0.000000
0.062500 0.875000 0.000000
0.062500 0.906250 0.000000
0.062500 0.937500 0.000000
0.062500 0.968750 0.000000
0.062500 1.000000 0.000000
0.093750 0.000000 0.000000
0.093750 0.031250 0.000000
0.093750 0.062500 0.000000
0.093750 0.093750 0.000000
0.093750 0.125000 0.000000
0.093750 0.156250 0.000000
0.093750 0.187500 0.000000
0.093750 0.218750 0.000000
0.093750 0.250000 0.000000
0.093750 0.281250 0.000000
0.093750 0.312500 0.000000
0.093750 0.343750 0.000000
0.093750 0.375000 0.000000
0.093750 0.406250 0.000000
0.093750 0.437500 0.000000
0.093750 0.468750 0.000000
0.093750 0.500000 0.000000
0.093750 0.531250 0.000000
0.093750 0.562500 0.000000
0.093750 0.593750 0.000000
0.093750 0.625000 0.000000
0.093750 0.656250 0.000000
0.093750 0.687500 0.000000
0.093750 0.718750 0.000000
0.093750 0.750000 0.000000
0.093750 0.781250 0.000000
0.093750 0.812500 0.000000
0.093750 0.843750 0.000000
0.093750 0.875000 0.000000
0.093750 0.906250 0.000000
0.093750 0.937500 0.000000
0.093750 0.968750 0.000000
0.093750 1.000000 0.000000
0.125000 0.000000 0.000000
0.125000 0.031250 0.000000
0.125000 0.062500 0.000000
0.125000 0.093750 0.000000
0.125000 0.125000 0.000000
0.125000 0.156250 0.000000
0.125000 0.187500 0.000000
0.125000 0.218750 0.000000
0.125000 0.250000 0.000000
0.125000 0.281250 0.000000
0.125000 0.312500 0.000000
0.125000 0.343750 0.000000
0.125000 0.375000 0.000000
0.125000 0.406250 0.000000
0.125000 0.437500 0.000000
0.125000 0.468750 0.000000
0.125000 0.500000 0.000000
0.125000 0.531250 0.000000
0.125000 0.562500 0.000000
0.125000 0.593750 0.000000
0.125000 0.625000 0.000000
0.125000 0.656250 0.000000
0.125000 0.687500 0.000000
0.125000 0.718750 0.000000
0.125000 0.750000 0.000000
0.125000 0.781250 0.000000
0.125000 0.812500 0.000000
0.125000 0.843750 0.000000
0.125000 0.875000 0.000000
0.125000 0.906250 0.000000
0.125000 0.937500 0.000000
0.125000 0.968750 0.000000
0.125000 1.000000 0.000000
0.156250 0.000000 0.000000
0.156250 0.031250 0.000000
0.156250 0.062500 0.000000
0.156250 0.093750 0.000000
0.156250 0.125000 0.000000
0.156250 0.156250 0.000000
0.156250 0.187500 0.000000
0.156250 0.218750 0.000000
0.156250 0.250000 0.000000
0.156250 0.281250 0.000000
0.156250 0.312500 0.000000
0.156250 0.343750 0.000000
0.156250 0.375000 0.000000
0.156250 0.406250 0.000000
0.156250 0.437500 0.000000
0.156250 0.468750 0.000000
0.156250 0.500000 0.000000
0.156250 0.531250 0.000000
0.156250 0.562500 0.000000
0.156250 0.593750 0.000000
0.156250 0.625000 0.000000
0.156250 0.656250 0.000000
0.156250 0.687500 0.000000
0.156250 0.718750 0.000000
0.156250 0.750000 0.000000
0.156250 0.781250 0.000000
0.156250 0.812500 0.000000
0.156250 0.843750 0.000000
0.156250 0.875000 0.000000
0.156250 0.906250 0.000000
0.156250 0.937500 0.000000
0.156250 0.968750 0.000000
0.156250 1.000000 0.000000
0.187500 0.000000 0.000000
0.187500 0.031250 0.000000
0.187500 0.062500 0.000000
0.187500 0.093750 0.000000
0.187500 0.125000 0.000000
0.187500 0.156250 0.000000
0.187500 0.187500 0.000000
0.187500 0.218750 0.000000
0.187500 0.250000 0.000000
0.187500 0.281250 0.000000
0.187500 0.312500 0.000000
0.187500 0.343750 0.000000
0.187500 0.375000 0.000000
0.187500 0.406250 0.000000
0.187500 0.437500 0.000000
0.187500 0.468750 0.000000
0.187500 0.500000 0.000000
0.187500 0.531250 0.000000
0.187500 0.562500 0.000000
0.187500 0.593750 0.000000
0.187500 0.625000 0.000000
0.187500 0.656250 0.000000
0.187500 0.687500 0.000000
0.187500 0.718750 0.000000
0.187500 0.750000 0.000000
0.187500 0.781250 0.000000
0.187500 0.812500 0.000000
0.187500 0.843750 0.000000
0.187500 0.875000 0.000000
0.187500 0.906250 0.000000
0.187500 0.937500 0.000000
0.187500 0.968750 0.000000
0.187500 1.000000 0.000000
0.218750 0.000000 0.000000
0.218750 0.031250 0.000000
0.218750 0.062500 0.000000
0.218750 0.093750 0.000000
0.218750 0.125000 0.000000
0.218750 0.156250 0.000000
0.218750 0.187500 0.000000
0.218750 0.218750 0.000000
0.218750 0.250000 0.000000
0.218750 0.281250 0.000000
0.218750 0.312500 0.000000
0.218750 0.343750 0.000000
0.218750 0.375000 0.000000
0.218750 0.406250 0.000000
0.218750 0.437500 0.000000
0.218750 0.468750 0.000000
0.218750 0.500000 0.000000
0.218750 0.531250 0.000000
0.218750 0.562500 0.000000
0.218750 0.593750 0.000000
0.218750 0.625000 0.000000
0.218750 0.656250 0.000000
0.218750 0.687500 0.000000
0.218750 0.718750 0.000000
0.218750 0.750000 0.000000
0.218750 0.781250 0.000000
0.218750 0.812500 0.000000
0.218750 0.843750 0.000000
0.218750 0.875000 0.000000
0.218750 0.906250 0.000000
0.218750 0.937500 0.000000
0.218750 0.968750 0.000000
0.218750 1.000000 0.000000
0.250000 0.000000 0.000000
0.250000 0.031250 0.000000
0.250000 0.062500 0.000000
0.250000 0.093750 0.000000
0.250000 0.125000 0.000000
0.250000 0.156250 0.000000
0.250000 0.187500 0.000000
0.250000 0.218750 0.000000
0.250000 0.250000 0.000000
0.250000 0.281250 0.000000
0.250000 0.312500 0.000000
0.250000 0.343750 0.000000
0.250000 0.375000 0.000000
0.250000 0.406250 0.000000
0.250000 0.437500 0.000000
0.250000 0.468750 0.000000
0.250000 0.500000 0.000000
0.250000 0.531250 0.000000
0.250000 0.562500 0.000000
0.250000 0.593750 0.000000
0.250000 0.625000 0.000000
0.250000 0.656250 0.000000
0.250000 0.687500 0.000000
0.250000 0.718750 0.000000
0.250000 0.750000 0.000000
0.250000 0.781250 0.000000
0.250000 0.812500 0.000000
0.250000 0.843750 0.000000
0.250000 0.875000 0.000000
0.250000 0.906250 0.000000
0.250000 0.937500 0.000000
0.250000 0.968750 0.000000
0.250000 1.000000 0.000000
0.281250 0.000000 0.000000
0.281250 0.031250 0.000000
0.281250 0.062500 0.000000
0.281250 0.093750 0.000000
0.281250 0.125000 0.000000
0.281250 0.156250 0.000000
0.281250 0.187500 0.000000
0.281250 0.218750 0.000000
0.281250 0.250000 0.000000
0.281250 0.281250 0.000000
0.281250 0.312500 0.000000
0.281250 0.343750 0.000000
0.281250 0.375000 0.000000
0.281250 0.406250 0.000000
0.281250 0.437500 0.000000
0.281250 0.468750 0.000000
0.281250 0.500000 0.000000
0.281250 0.531250 0.000000
0.281250 0.562500 0.000000
0.281250 0.593750 0.000000
0.281250 0.625000 0.000000
0.281250 0.656250 0.000000
0.281250 0.687500 0.000000
0.281250 0.718750 0.000000
0.281250 0.750000 0.000000
0.281250 0.781250 0.000000
0.281250 0.812500 0.000000
0.281250 0.843750 0.000000
0.281250 0.875000 0.000000
0.281250 0.906250 0.000000
0.281250 0.937500 0.000000
0.281250 0.968750 0.000000
0.281250 1.000000 0.000000
0.312500 0.000000 0.000000
0.312500 0.031250 0.000000
0.312500 0.062500 0.000000
0.312500 0.093750 0.000000
0.312500 0.125000 0.000000
0.312500 0.156250 0.000000
0.312500 0.187500 0.000000
0.312500 0.218750 0.000000
0.312500 0.250000 0.000000
0.312500 0.281250 0.000000
0.312500 0.312500 0.000000
0.312500 0.343750 0.000000
0.312500 0.375000 0.000000
0.312500 0.406250 0.000000
0.312500 0.437500 0.000000
0.312500 0.468750 0.000000
0.312500 0.500000 0.000000
0.312500 0.531250 0.000000
0.312500 0.562500 0.000000
0.312500 0.593750 0.000000
0.312500 0.625000 0.000000
0.312500 0.656250 0.000000
0.312500 0.687500 0.000000
0.312500 0.718750 0.000000
0.312500 0.750000 0.000000
0.312500 0.781250 0.000000
0.312500 0.812500 0.000000
0.312500 0.843750 0.000000
0.312500 0.875000 0.000000
0.312500 0.906250 0.000000
0.312500 0.937500 0.000000
0.312500 0.968750 0.000000
0.312500 1.000000 0.000000
0.343750 0.000000 0.000000
0.343750 0.031250 0.000000
0.343750 0.062500 0.000000
[...]
POINT_DATA 1089
SCALARS phi FLOAT 1
LOOKUP_TABLE default
-0.000000000000
0.003124243223
0.006248535263
0.009372876120
0.012497265796
0.015621704290
0.018746191605
0.021870727739
0.024995312695
0.028119946473
0.031244629074
0.034369360498
0.037494140747
0.040618969821
0.043743847720
0.046868774447
0.049993750000
0.053118774382
0.056243847592
0.059368969632
0.062494140503
0.065619360205
0.068744628738
0.071869946105
0.074995312305
0.078120727339
0.081246191208
0.084371703913
0.087497265454
0.090622875833
0.093748535049
0.096874243105
0.100000000000
0.155494346807
0.158618590031
0.161742882070
0.164867222928
0.167991612603
0.171116051098
0.174240538412
0.177365074547
0.180489659503
0.183614293281
0.186738975882
0.189863707306
0.192988487555
0.196113316628
0.199238194528
0.202363121254
0.205488096807
0.208613121189
0.211738194400
0.214863316440
0.217988487310
0.221113707012
0.224238975546
0.227364292912
0.230489659112
0.233615074146
0.236740538015
0.239866050720
0.242991612262
0.246117222640
0.249242881857
0.252368589912
0.255494346807
0.311037293192
0.314161536415
0.317285828455
0.320410169312
0.323534558987
0.326658997482
0.329783484796
0.332908020931
0.336032605887
0.339157239665
0.342281922266
0.345406653690
0.348531433939
0.351656263012
0.354781140912
0.357906067638
0.361031043192
0.364156067573
0.367281140784
0.370406262824
0.373531433694
0.376656653396
0.379781921930
0.382907239296
0.386032605496
0.389158020530
0.392283484399
0.395408997104
0.398534558646
0.401660169024
0.404785828241
0.407911536296
0.411037293192
0.466628854342
0.469753097565
0.472877389605
0.476001730462
0.479126120138
0.482250558632
0.485375045947
0.488499582081
0.491624167037
0.494748800815
0.497873483416
0.500998214840
0.504122995089
0.507247824163
0.510372702062
0.513497628789
0.516622604342
0.519747628724
0.522872701934
0.525997823974
0.529122994845
0.532248214547
0.535373483080
0.538498800447
0.541624166647
0.544749581681
0.547875045550
0.551000558255
0.554126119796
0.557251730175
0.560377389391
0.563503097447
0.566628854342
0.622269045453
0.625393288677
0.628517580717
0.631641921574
0.634766311249
0.637890749744
0.641015237058
0.644139773193
0.647264358149
0.650388991927
0.653513674528
0.656638405952
0.659763186201
0.662888015274
0.666012893174
0.669137819900
0.672262795454
0.675387819835
0.678512893046
0.681638015086
0.684763185956
0.687888405658
0.691013674192
0.694138991558
0.697264357758
0.700389772792
0.703515236661
0.706640749366
0.709766310908
0.712891921286
0.716017580503
0.719143288558
0.722269045453
0.777957881725
0.781082124948
0.784206416988
0.787330757845
0.790455147521
0.793579586015
0.796704073330
0.799828609464
0.802953194420
0.806077828198
0.809202510799
0.812327242223
0.815452022472
0.818576851546
0.821701729445
0.824826656172
0.827951631725
0.831076656107
0.834201729317
0.837326851357
0.840452022228
0.843577241930
0.846702510463
0.849827827830
0.852953194030
0.856078609064
0.859204072933
0.862329585638
0.865455147179
0.868580757558
0.871706416774
0.874832124830
0.877957881725
0.933695378361
0.936819621584
0.939943913624
0.943068254481
0.946192644157
0.949317082651
0.952441569965
0.955566106100
0.958690691056
0.961815324834
0.964940007435
0.968064738859
0.971189519108
0.974314348181
0.977439226081
0.980564152807
0.983689128361
0.986814152742
0.989939225953
0.993064347993
0.996189518864
0.999314738565
1.002440007099
1.005565324465
1.008690690665
1.011816105699
1.014941569569
1.018067082273
1.021192643815
1.024318254193
1.027443913410
1.030569621466
1.033695378361
1.089481550569
1.092605793792
1.095730085832
1.098854426690
1.101978816365
1.105103254860
1.108227742174
1.111352278309
1.114476863265
1.117601497043
1.120726179643
1.123850911068
1.126975691316
1.130100520390
1.133225398290
1.136350325016
1.139475300569
1.142600324951
1.145725398161
1.148850520202
1.151975691072
1.155100910774
1.158226179308
1.161351496674
1.164476862874
1.167602277908
1.170727741777
1.173853254482
1.176978816023
1.180104426402
1.183230085619
1.186355793674
1.189481550569
1.245316413564
1.248440656787
1.251564948827
1.254689289684
1.257813679360
1.260938117855
1.264062605169
1.267187141303
1.270311726259
1.273436360037
1.276561042638
1.279685774063
1.282810554311
1.285935383385
1.289060261284
1.292185188011
1.295310163564
1.298435187946
1.301560261156
1.304685383196
1.307810554067
1.310935773769
1.314061042303
1.317186359669
1.320311725869
1.323437140903
1.326562604772
1.329688117477
1.332813679018
1.335939289397
1.339064948614
1.342190656669
1.345316413564
1.401199982563
1.404324225787
1.407448517827
1.410572858684
1.413697248359
1.416821686854
1.419946174168
1.423070710303
1.426195295259
1.429319929037
1.432444611638
1.435569343062
1.438694123311
1.441818952384
1.444943830284
1.448068757010
1.451193732564
1.454318756945
1.457443830156
1.460568952196
1.463694123066
1.466819342768
1.469944611302
1.473069928668
1.476195294868
1.479320709902
1.482446173771
1.485571686476
1.488697248018
1.491822858396
1.494948517613
1.498074225668
1.501199982563
1.557132272791
1.560256516014
1.563380808054
1.566505148911
1.569629538586
1.572753977081
1.575878464395
1.579003000530
1.582127585486
1.585252219264
1.588376901865
1.591501633289
1.594626413538
1.597751242611
1.600876120511
1.604001047237
1.607126022791
1.610251047172
1.613376120383
1.616501242423
1.619626413294
1.622751632995
1.625876901529
1.629002218895
1.632127585095
1.635253000129
1.638378463998
1.641503976703
1.644629538245
1.647755148623
1.650880807840
1.654006515896
1.657132272791
1.713113299473
1.716237542696
1.719361834736
1.722486175594
1.725610565269
1.728735003764
1.731859491078
1.734984027212
1.738108612168
1.741233245946
1.744357928547
1.747482659972
1.750607440220
1.753732269294
1.756857147193
1.759982073920
1.763107049473
1.766232073855
1.769357147065
1.772482269105
1.775607439976
1.778732659678
1.781857928212
1.784983245578
1.788108611778
1.791234026812
1.794359490681
1.797485003386
1.800610564927
1.803736175306
1.806861834523
1.809987542578
1.813113299473
1.869143077843
1.872267321067
1.875391613106
1.878515953964
1.881640343639
1.884764782134
1.887889269448
1.891013805583
1.894138390539
1.897263024317
1.900387706917
1.903512438342
1.906637218590
1.909762047664
1.912886925564
1.916011852290
1.919136827843
1.922261852225
1.925386925436
1.928512047476
1.931637218346
1.934762438048
1.937887706582
1.941013023948
1.944138390148
1.947263805182
1.950389269051
1.953514781756
1.956640343297
1.959765953676
1.962891612893
1.966017320948
1.969143077843
2.025221623139
2.028345866362
2.031470158402
2.034594499259
2.037718888935
2.040843327429
2.043967814744
2.047092350878
2.050216935834
2.053341569612
2.056466252213
2.059590983637
2.062715763886
2.065840592960
2.068965470859
2.072090397585
2.075215373139
2.078340397521
2.081465470731
2.084590592771
2.087715763642
2.090840983344
2.093966251877
2.097091569244
2.100216935444
2.103342350478
2.106467814347
2.109593327052
2.112718888593
2.115844498972
2.118970158188
2.122095866244
2.125221623139
2.181348950602
2.184473193825
2.187597485865
2.190721826722
2.193846216398
2.196970654892
2.200095142206
2.203219678341
2.206344263297
2.209468897075
2.212593579676
2.215718311100
2.218843091349
2.221967920423
2.225092798322
2.228217725048
2.231342700602
2.234467724983
2.237592798194
2.240717920234
2.243843091105
2.246968310806
2.250093579340
2.253218896707
2.256344262906
2.259469677941
2.262595141810
2.265720654514
2.268846216056
2.271971826434
2.275097485651
2.278223193707
2.281348950602
2.337525075478
2.340649318702
2.343773610741
2.346897951599
2.350022341274
2.353146779769
2.356271267083
2.359395803218
2.362520388174
2.365645021952
2.368769704553
2.371894435977
2.375019216225
2.378144045299
2.381268923199
2.384393849925
2.387518825478
2.390643849860
2.393768923071
2.396894045111
2.400019215981
2.403144435683
2.406269704217
2.409395021583
2.412520387783
2.415645802817
2.418771266686
2.421896779391
2.425022340933
2.428147951311
2.431273610528
2.434399318583
2.437525075478
2.493750013021
2.496874256244
2.499998548284
2.503122889141
2.506247278817
2.509371717311
2.512496204625
2.515620740760
2.518745325716
2.521869959494
2.524994642095
2.528119373519
2.531244153768
2.534368982842
2.537493860741
2.540618787467
2.543743763021
2.546868787402
2.549993860613
2.553118982653
2.556244153524
2.559369373226
2.562494641759
2.565619959126
2.568745325326
2.571870740360
2.574996204229
2.578121716934
2.581247278475
2.584372888854
2.587498548070
2.590624256126
2.593750013021
2.650023778485
2.653148021708
2.656272313748
2.659396654606
2.662521044281
2.665645482776
2.668769970090
2.671894506225
2.675019091180
2.678143724958
2.681268407559
2.684393138984
2.687517919232
2.690642748306
2.693767626206
2.696892552932
2.700017528485
2.703142552867
2.706267626077
2.709392748117
2.712517918988
2.715643138690
2.718768407224
2.721893724590
2.725019090790
2.728144505824
2.731269969693
2.734395482398
2.737521043939
2.740646654318
2.743772313535
2.746898021590
2.750023778485
2.806346387133
2.809470630356
2.812594922396
2.815719263253
2.818843652928
2.821968091423
2.825092578737
2.828217114872
2.831341699828
2.834466333606
2.837591016207
2.840715747631
2.843840527880
2.846965356953
2.850090234853
2.853215161579
2.856340137133
2.859465161514
2.862590234725
2.865715356765
2.868840527635
2.871965747337
2.875091015871
2.878216333237
2.881341699437
2.884467114471
2.887592578340
2.890718091045
2.893843652587
2.896969262965
2.900094922182
2.903220630237
2.906346387133
2.962717854229
2.965842097452
2.968966389492
2.972090730349
2.975215120025
2.978339558519
2.981464045834
2.984588581968
2.987713166924
2.990837800702
2.993962483303
2.997087214727
3.000211994976
3.003336824050
3.006461701949
3.009586628675
3.012711604229
3.015836628611
3.018961701821
3.022086823861
3.025211994732
3.028337214434
3.031462482967
3.034587800334
3.037713166534
3.040838581568
3.043964045437
3.047089558142
3.050215119683
3.053340730062
3.056466389278
3.059592097334
3.062717854229
3.119138195045
3.122262438268
3.125386730308
3.128511071165
3.131635460841
3.134759899335
3.137884386649
3.141008922784
3.144133507740
3.147258141518
3.150382824119
3.153507555543
3.156632335792
3.159757164866
3.162882042765
3.166006969491
3.169131945045
3.172256969426
3.175382042637
3.178507164677
3.181632335548
3.184757555249
3.187882823783
3.191008141150
3.194133507349
3.197258922384
3.200384386253
3.203509898958
3.206635460499
3.209761070878
3.212886730094
3.216012438150
3.219138195045
3.275607424856
3.278731668079
3.281855960119
3.284980300976
3.288104690652
3.291229129146
3.294353616460
3.297478152595
3.300602737551
3.303727371329
3.306852053930
3.309976785354
3.313101565603
3.316226394677
3.319351272576
3.322476199302
3.325601174856
3.328726199237
3.331851272448
3.334976394488
3.338101565359
3.341226785060
3.344352053594
3.347477370961
3.350602737160
3.353728152195
3.356853616064
3.359979128768
3.363104690310
3.366230300688
3.369355959905
3.372481667961
3.375607424856
3.432125558942
3.435249802165
3.438374094205
3.441498435062
3.444622824738
3.447747263232
3.450871750546
3.453996286681
3.457120871637
3.460245505415
3.463370188016
3.466494919440
3.469619699689
3.472744528763
3.475869406662
3.478994333388
3.482119308942
3.485244333324
3.488369406534
3.491494528574
3.494619699445
3.497744919147
3.500870187680
3.503995505047
3.507120871247
3.510246286281
3.513371750150
3.516497262855
3.519622824396
3.522748434775
3.525874093991
3.528999802047
3.532125558942
3.588692612588
3.591816855811
3.594941147851
3.598065488709
3.601189878384
3.604314316879
3.607438804193
3.610563340328
3.613687925283
3.616812559061
3.619937241662
3.623061973087
3.626186753335
3.629311582409
3.632436460309
3.635561387035
3.638686362588
3.641811386970
3.644936460180
3.648061582221
3.651186753091
3.654311972793
3.657437241327
3.660562558693
3.663687924893
3.666813339927
3.669938803796
3.673064316501
3.676189878042
3.679315488421
3.682441147638
3.685566855693
3.688692612588
3.745308601084
3.748432844308
3.751557136347
3.754681477205
3.757805866880
3.760930305375
3.764054792689
3.767179328824
3.770303913780
3.773428547558
3.776553230158
3.779677961583
3.782802741831
3.785927570905
3.789052448805
3.792177375531
3.795302351084
3.798427375466
3.801552448677
3.804677570717
3.807802741587
3.810927961289
3.814053229823
3.817178547189
3.820303913389
3.823429328423
3.826554792292
3.829680304997
3.832805866539
3.835931476917
3.839057136134
3.842182844189
3.845308601084
3.901973539725
3.905097782948
3.908222074988
3.911346415846
3.914470805521
3.917595244016
3.920719731330
3.923844267465
3.926968852420
3.930093486198
3.933218168799
3.936342900224
3.939467680472
3.942592509546
3.945717387446
3.948842314172
3.951967289725
3.955092314107
3.958217387317
3.961342509358
3.964467680228
3.967592899930
3.970718168464
3.973843485830
3.976968852030
3.980094267064
3.983219730933
3.986345243638
3.989470805179
3.992596415558
3.995722074775
3.998847782830
4.001973539725
4.058687443810
4.061811687033
4.064935979073
4.068060319930
4.071184709606
4.074309148100
4.077433635414
4.080558171549
4.083682756505
4.086807390283
4.089932072884
4.093056804308
4.096181584557
4.099306413630
4.102431291530
4.105556218256
4.108681193810
4.111806218191
4.114931291402
4.118056413442
4.121181584313
4.124306804014
4.127432072548
4.130557389914
4.133682756114
4.136808171148
4.139933635018
4.143059147722
4.146184709264
4.149310319642
4.152435978859
4.155561686915
4.158687443810
4.215450328642
4.218574571865
4.221698863905
4.224823204762
4.227947594438
4.231072032932
4.234196520247
4.237321056381
4.240445641337
4.243570275115
4.246694957716
4.249819689140
4.252944469389
4.256069298463
4.259194176362
4.262319103089
4.265444078642
4.268569103024
4.271694176234
4.274819298274
4.277944469145
4.281069688847
4.284194957380
4.287320274747
4.290445640947
4.293571055981
4.296696519850
4.299822032555
4.302947594096
4.306073204475
4.309198863691
4.312324571747
4.315450328642
4.372262209531
4.375386452754
4.378510744794
4.381635085651
4.384759475327
4.387883913822
4.391008401136
4.394132937270
4.397257522226
4.400382156004
4.403506838605
4.406631570030
4.409756350278
4.412881179352
4.416006057251
4.419130983978
4.422255959531
4.425380983913
4.428506057123
4.431631179163
4.434756350034
4.437881569736
4.441006838270
4.444132155636
4.447257521836
4.450382936870
4.453508400739
4.456633913444
4.459759474985
4.462885085364
4.466010744581
4.469136452636
4.472262209531
4.529123101791
4.532247345014
4.535371637054
4.538495977911
4.541620367587
4.544744806081
4.547869293395
4.550993829530
4.554118414486
4.557243048264
4.560367730865
4.563492462289
4.566617242538
4.569742071611
4.572866949511
4.575991876237
4.579116851791
4.582241876172
4.585366949383
4.588492071423
4.591617242294
4.594742461995
4.597867730529
4.600993047896
4.604118414095
4.607243829130
4.610369292999
4.613494805703
4.616620367245
4.619745977623
4.622871636840
4.625997344896
4.629123101791
4.686033020739
4.689157263962
4.692281556002
4.695405896859
4.698530286535
4.701654725029
4.704779212344
4.707903748478
4.711028333434
4.714152967212
4.717277649813
4.720402381237
4.723527161486
4.726651990560
4.729776868459
4.732901795185
4.736026770739
4.739151795121
4.742276868331
4.745401990371
4.748527161242
4.751652380944
4.754777649477
4.757902966844
4.761028333044
4.764153748078
4.767279211947
4.770404724652
4.773530286193
4.776655896572
4.779781555788
4.782907263844
4.786033020739
4.842991981699
4.846116224923
4.849240516963
4.852364857820
4.855489247495
4.858613685990
4.861738173304
4.864862709439
4.867987294395
4.871111928173
4.874236610774
4.877361342198
4.880486122447
4.883610951520
4.886735829420
4.889860756146
4.892985731700
4.896110756081
4.899235829292
4.902360951332
4.905486122202
4.908611341904
4.911736610438
4.914861927804
4.917987294004
4.921112709038
4.924238172907
4.927363685612
4.930489247154
4.933614857532
4.936740516749
4.939866224804
4.942991981699
5.000000000000
5.003124243223
5.006248535263
5.009372876120
5.012497265796
5.015621704290
5.018746191605
5.021870727739
5.024995312695
5.028119946473
5.031244629074
5.034369360498
5.037494140747
5.040618969821
5.043743847720
5.046868774447
5.049993750000
5.053118774382
5.056243847592
5.059368969632
5.062494140503
5.065619360205
5.068744628738
5.071869946105
5.074995312305
5.078120727339
5.081246191208
5.084371703913
5.087497265454
5.090622875833
5.093748535049
5.096874243105
5.100000000000
