# vtk DataFile Version 2.0
TITLE = "Quad data"
ASCII
DATASET STRUCTURED_GRID
DIMENSIONS 33 33 1
POINTS 1089 FLOAT
0.000000 0.000000 0.000000
0.000000 0.031250 0.000000
0.000000 0.062500 0.000000
0.000000 0.093750 0.000000
0.000000 0.125000 0.000000
0.000000 0.156250 0.000000
0.000000 0.187500 0.000000
0.000000 0.218750 0.000000
0.000000 0.250000 0.000000
0.000000 0.281250 0.000000
0.000000 0.312500 0.000000
0.000000 0.343750 0.000000
0.000000 0.375000 0.000000
0.000000 0.406250 0.000000
0.000000 0.437500 0.000000
0.000000 0.468750 0.000000
0.000000 0.500000 0.000000
0.000000 0.531250 0.000000
0.000000 0.562500 0.000000
0.000000 0.593750 0.000000
0.000000 0.625000 0.000000
0.000000 0.656250 0.000000
0.000000 0.687500 0.000000
0.000000 0.718750 0.000000
0.000000 0.750000 0.000000
0.000000 0.781250 0.000000
0.000000 0.812500 0.000000
0.000000 0.843750 0.000000
0.000000 0.875000 0.000000
0.000000 0.906250 0.000000
0.000000 0.937500 0.000000
0.000000 0.968750 0.000000
0.000000 1.000000 0.000000
0.031250 0.000000 0.000000
0.031250 0.031250 0.000000
0.031250 0.062500 0.000000
0.031250 0.093750 0.000000
0.031250 0.125000 0.000000
0.031250 0.156250 0.000000
0.031250 0.187500 0.000000
0.031250 0.218750 0.000000
0.031250 0.250000 0.000000
0.031250 0.281250 0.000000
0.031250 0.312500 0.000000
0.031250 0.343750 0.000000
0.031250 0.375000 0.000000
0.031250 0.406250 0.000000
0.031250 0.437500 0.000000
0.031250 0.468750 0.000000
0.031250 0.500000 0.000000
0.031250 0.531250 0.000000
0.031250 0.562500 0.000000
0.031250 0.593750 0.000000
0.031250 0.625000 0.000000
0.031250 0.656250 0.000000
0.031250 0.687500 0.000000
0.031250 0.718750 0.000000
0.031250 0.750000 0.000000
0.031250 0.781250 0.000000
0.031250 0.812500 0.000000
0.031250 0.843750 0.000000
0.031250 0.875000 0.000000
0.031250 0.906250 0.000000
0.031250 0.937500 0.000000
0.031250 0.968750 0.000000
0.031250 1.000000 0.000000
0.062500 0.000000 0.000000
0.062500 0.031250 0.000000
0.062500 0.062500 0.000000
0.062500 0.093750 0.000000
0.062500 0.125000 0.000000
0.062500 0.156250 0.000000
0.062500 0.187500 0.000000
0.062500 0.218750 0.000000
0.062500 0.250000 0.000000
0.062500 0.281250 0.000000
0.062500 0.312500 0.000000
0.062500 0.343750 0.000000
0.062500 0.375000 0.000000
0.062500 0.406250 0.000000
0.062500 0.437500 0.000000
0.062500 0.468750 0.000000
0.062500 0.500000 0.000000
0.062500 0.531250 0.000000
0.062500 0.562500 0.000000
0.062500 0.593750 0.000000
0.062500 0.625000 0.000000
0.062500 0.656250 0.000000
0.062500 0.687500 0.000000
0.062500 0.718750 0.000000
0.062500 0.750000 0.000000
0.062500 0.781250 0.000000
0.062500 0.812500 0.000000
0.062500 0.843750 0.000000
0.062500 0.875000 0.000000
0.062500 0.906250 0.000000
0.062500 0.937500 0.000000
0.062500 0.968750 0.000000
0.062500 1.000000 0.000000
0.093750 0.000000 0.000000
0.093750 0.031250 0.000000
0.093750 0.062500 0.000000
0.093750 0.093750 0.000000
0.093750 0.125000 0.000000
0.093750 0.156250 0.000000
0.093750 0.187500 0.000000
0.093750 0.218750 0.000000
0.093750 0.250000 0.000000
0.093750 0.281250 0.000000
0.093750 0.312500 0.000000
0.093750 0.343750 0.000000
0.093750 0.375000 0.000000
0.093750 0.406250 0.000000
0.093750 0.437500 0.000000
0.093750 0.468750 0.000000
0.093750 0.500000 0.000000
0.093750 0.531250 0.000000
0.093750 0.562500 0.000000
0.093750 0.593750 0.000000
0.093750 0.625000 0.000000
0.093750 0.656250 0.000000
0.093750 0.687500 0.000000
0.093750 0.718750 0.000000
0.093750 0.750000 0.000000
0.093750 0.781250 0.000000
0.093750 0.812500 0.000000
0.093750 0.843750 0.000000
0.093750 0.875000 0.000000
0.093750 0.906250 0.000000
0.093750 0.937500 0.000000
0.093750 0.968750 0.000000
0.093750 1.000000 0.000000
0.125000 0.000000 0.000000
0.125000 0.031250 0.000000
0.125000 0.062500 0.000000
0.125000 0.093750 0.000000
0.125000 0.125000 0.000000
0.125000 0.156250 0.000000
0.125000 0.187500 0.000000
0.125000 0.218750 0.000000
0.125000 0.250000 0.000000
0.125000 0.281250 0.000000
0.125000 0.312500 0.000000
0.125000 0.343750 0.000000
0.125000 0.375000 0.000000
0.125000 0.406250 0.000000
0.125000 0.437500 0.000000
0.125000 0.468750 0.000000
0.125000 0.500000 0.000000
0.125000 0.531250 0.000000
0.125000 0.562500 0.000000
0.125000 0.593750 0.000000
0.125000 0.625000 0.000000
0.125000 0.656250 0.000000
0.125000 0.687500 0.000000
0.125000 0.718750 0.000000
0.125000 0.750000 0.000000
0.125000 0.781250 0.000000
0.125000 0.812500 0.000000
0.125000 0.843750 0.000000
0.125000 0.875000 0.000000
0.125000 0.906250 0.000000
0.125000 0.937500 0.000000
0.125000 0.968750 0.000000
0.125000 1.000000 0.000000
0.156250 0.000000 0.000000
0.156250 0.031250 0.000000
0.156250 0.062500 0.000000
0.156250 0.093750 0.000000
0.156250 0.125000 0.000000
0.156250 0.156250 0.000000
0.156250 0.187500 0.000000
0.156250 0.218750 0.000000
0.156250 0.250000 0.000000
0.156250 0.281250 0.000000
0.156250 0.312500 0.000000
0.156250 0.343750 0.000000
0.156250 0.375000 0.000000
0.156250 0.406250 0.000000
0.156250 0.437500 0.000000
0.156250 0.468750 0.000000
0.156250 0.500000 0.000000
0.156250 0.531250 0.000000
0.156250 0.562500 0.000000
0.156250 0.593750 0.000000
0.156250 0.625000 0.000000
0.156250 0.656250 0.000000
0.156250 0.687500 0.000000
0.156250 0.718750 0.000000
0.156250 0.750000 0.000000
0.156250 0.781250 0.000000
0.156250 0.812500 0.000000
0.156250 0.843750 0.000000
0.156250 0.875000 0.000000
0.156250 0.906250 0.000000
0.156250 0.937500 0.000000
0.156250 0.968750 0.000000
0.156250 1.000000 0.000000
0.187500 0.000000 0.000000
0.187500 0.031250 0.000000
0.187500 0.062500 0.000000
0.187500 0.093750 0.000000
0.187500 0.125000 0.000000
0.187500 0.156250 0.000000
0.187500 0.187500 0.000000
0.187500 0.218750 0.000000
0.187500 0.250000 0.000000
0.187500 0.281250 0.000000
0.187500 0.312500 0.000000
0.187500 0.343750 0.000000
0.187500 0.375000 0.000000
0.187500 0.406250 0.000000
0.187500 0.437500 0.000000
0.187500 0.468750 0.000000
0.187500 0.500000 0.000000
0.187500 0.531250 0.000000
0.187500 0.562500 0.000000
0.187500 0.593750 0.000000
0.187500 0.625000 0.000000
0.187500 0.656250 0.000000
0.187500 0.687500 0.000000
0.187500 0.718750 0.000000
0.187500 0.750000 0.000000
0.187500 0.781250 0.000000
0.187500 0.812500 0.000000
0.187500 0.843750 0.000000
0.187500 0.875000 0.000000
0.187500 0.906250 0.000000
0.187500 0.937500 0.000000
0.187500 0.968750 0.000000
0.187500 1.000000 0.000000
0.218750 0.000000 0.000000
0.218750 0.031250 0.000000
0.218750 0.062500 0.000000
0.218750 0.093750 0.000000
0.218750 0.125000 0.000000
0.218750 0.156250 0.000000
0.218750 0.187500 0.000000
0.218750 0.218750 0.000000
0.218750 0.250000 0.000000
0.218750 0.281250 0.000000
0.218750 0.312500 0.000000
0.218750 0.343750 0.000000
0.218750 0.375000 0.000000
0.218750 0.406250 0.000000
0.218750 0.437500 0.000000
0.218750 0.468750 0.000000
0.218750 0.500000 0.000000
0.218750 0.531250 0.000000
0.218750 0.562500 0.000000
0.218750 0.593750 0.000000
0.218750 0.625000 0.000000
0.218750 0.656250 0.000000
0.218750 0.687500 0.000000
0.218750 0.718750 0.000000
0.218750 0.750000 0.000000
0.218750 0.781250 0.000000
0.218750 0.812500 0.000000
0.218750 0.843750 0.000000
0.218750 0.875000 0.000000
0.218750 0.906250 0.000000
0.218750 0.937500 0.000000
0.218750 0.968750 0.000000
0.218750 1.000000 0.000000
0.250000 0.000000 0.000000
0.250000 0.031250 0.000000
0.250000 0.062500 0.000000
0.250000 0.093750 0.000000
0.250000 0.125000 0.000000
0.250000 0.156250 0.000000
0.250000 0.187500 0.000000
0.250000 0.218750 0.000000
0.250000 0.250000 0.000000
0.250000 0.281250 0.000000
0.250000 0.312500 0.000000
0.250000 0.343750 0.000000
0.250000 0.375000 0.000000
0.250000 0.406250 0.000000
0.250000 0.437500 0.000000
0.250000 0.468750 0.000000
0.250000 0.500000 0.000000
0.250000 0.531250 0.000000
0.250000 0.562500 0.000000
0.250000 0.593750 0.000000
0.250000 0.625000 0.000000
0.250000 0.656250 0.000000
0.250000 0.687500 0.000000
0.250000 0.718750 0.000000
0.250000 0.750000 0.000000
0.250000 0.781250 0.000000
0.250000 0.812500 0.000000
0.250000 0.843750 0.000000
0.250000 0.875000 0.000000
0.250000 0.906250 0.000000
0.250000 0.937500 0.000000
0.250000 0.968750 0.000000
0.250000 1.000000 0.000000
0.281250 0.000000 0.000000
0.281250 0.031250 0.000000
0.281250 0.062500 0.000000
0.281250 0.093750 0.000000
0.281250 0.125000 0.000000
0.281250 0.156250 0.000000
0.281250 0.187500 0.000000
0.281250 0.218750 0.000000
0.281250 0.250000 0.000000
0.281250 0.281250 0.000000
0.281250 0.312500 0.000000
0.281250 0.343750 0.000000
0.281250 0.375000 0.000000
0.281250 0.406250 0.000000
0.281250 0.437500 0.000000
0.281250 0.468750 0.000000
0.281250 0.500000 0.000000
0.281250 0.531250 0.000000
0.281250 0.562500 0.000000
0.281250 0.593750 0.000000
0.281250 0.625000 0.000000
0.281250 0.656250 0.000000
0.281250 0.687500 0.000000
0.281250 0.718750 0.000000
0.281250 0.750000 0.000000
0.281250 0.781250 0.000000
0.281250 0.812500 0.000000
0.281250 0.843750 0.000000
0.281250 0.875000 0.000000
0.281250 0.906250 0.000000
0.281250 0.937500 0.000000
0.281250 0.968750 0.000000
0.281250 1.000000 0.000000
0.312500 0.000000 0.000000
0.312500 0.031250 0.000000
0.312500 0.062500 0.000000
0.312500 0.093750 0.000000
0.312500 0.125000 0.000000
0.312500 0.156250 0.000000
0.312500 0.187500 0.000000
0.312500 0.218750 0.000000
0.312500 0.250000 0.000000
0.312500 0.281250 0.000000
0.312500 0.312500 0.000000
0.312500 0.343750 0.000000
0.312500 0.375000 0.000000
0.312500 0.406250 0.000000
0.312500 0.437500 0.000000
0.312500 0.468750 0.000000
0.312500 0.500000 0.000000
0.312500 0.531250 0.000000
0.312500 0.562500 0.000000
0.312500 0.593750 0.000000
0.312500 0.625000 0.000000
0.312500 0.656250 0.000000
0.312500 0.687500 0.000000
0.312500 0.718750 0.000000
0.312500 0.750000 0.000000
0.312500 0.781250 0.000000
0.312500 0.812500 0.000000
0.312500 0.843750 0.000000
0.312500 0.875000 0.000000
0.312500 0.906250 0.000000
0.312500 0.937500 0.000000
0.312500 0.968750 0.000000
0.312500 1.000000 0.000000
0.343750 0.000000 0.000000
0.343750 0.031250 0.000000
0.343750 0.062500 0.000000
[...]
POINT_DATA 1089
SCALARS phi FLOAT 1
LOOKUP_TABLE default
0.000000000000
0.000114724118
0.000248850200
0.000405659477
0.000588988095
0.000803320964
0.001053901475
0.001346859773
0.001689362722
0.002089789238
0.002557935265
0.003105253420
0.003745133171
0.004493228392
0.005367840313
0.006390365244
0.007585818002
0.008983443873
0.010617434060
0.012527762128
0.014761161911
0.017372270795
0.020424966356
0.023993929047
0.028166469162
0.033044662779
0.038747848920
0.045415549040
0.053210880243
0.062324545747
0.072979500199
0.085436403993
0.100000000000
0.094503238289
0.094609234029
0.094762291233
0.094961905836
0.095210629911
0.095512659206
0.095873459868
0.096299717973
0.096799412310
0.097381950690
0.098058351607
0.098841466988
0.099746247275
0.100790052792
0.101993017040
0.103378468990
0.104973422680
0.106809143770
0.108921804026
0.111353236173
0.114151803051
0.117373396666
0.121082584654
0.125353924333
0.130273469343
0.135940505124
0.142469579985
0.149992988544
0.158664146571
0.168663233882
0.180209789778
0.193599341996
0.209330335498
0.191949987455
0.192055984353
0.192229160019
0.192470422181
0.192782436686
0.193169482451
0.193637308700
0.194193103144
0.194845545955
0.195604924375
0.196483294708
0.197494686438
0.198655347813
0.199984034823
0.201502347156
0.203235115886
0.205210848495
0.207462237545
0.210026739796
0.212947232878
0.216272756598
0.220059345609
0.224370959421
0.229280514805
0.234871025452
0.241236856880
0.248485117936
0.256737249415
0.266130963313
0.276822839076
0.288991773425
0.302840546162
0.318571538533
0.292422296216
0.292528294285
0.292721412282
0.293003046156
0.293376129160
0.293845173496
0.294416255080
0.295097026685
0.295896778158
0.296826542214
0.297899241516
0.299129874339
0.300535738123
0.302136691787
0.303955458734
0.306017973220
0.308353773080
0.310996441863
0.313984103109
0.317359968642
0.321172941282
0.325478269929
0.330338251264
0.335822966809
0.342011035992
0.348990353755
0.356858760963
0.365724554280
0.375706633815
0.386933757536
0.399541335351
0.413661140440
0.429392131666
0.395995990389
0.396101989631
0.396314404288
0.396634854506
0.397066509582
0.397614140378
0.398284149016
0.399084609470
0.400025335830
0.401117983415
0.402376183288
0.403815709638
0.405454679794
0.407313787096
0.409416567300
0.411789699314
0.414463340946
0.417471499716
0.420852437755
0.424649107967
0.428909615906
0.433687697563
0.439043197023
0.445042518478
0.451759012415
0.459273231998
0.467672954099
0.477052780709
0.487512976510
0.499156864673
0.512085442131
0.526386833065
0.542117823145
0.502749958402
0.502855958809
0.503086806997
0.503444260182
0.503931680440
0.504554077899
0.505318152632
0.506232346543
0.507306914728
0.508554021266
0.509987861323
0.511624810018
0.513483597929
0.515585512980
0.517954628296
0.520618055269
0.523606220473
0.526953163972
0.530696854888
0.534879517602
0.539547958277
0.544753876037
0.550554135382
0.557010964834
0.564192029450
0.572170297627
0.581023578821
0.590833536383
0.601683860430
0.613657102661
0.626829456419
0.641262734979
0.656993723921
0.612766469076
0.612872470625
0.613120751919
0.613513170907
0.614053247250
0.614746198024
0.615598980722
0.616620347192
0.617820913181
0.619213246752
0.620811977207
0.622633924975
0.624698252157
0.627026632911
0.629643442325
0.632575961737
0.635854597479
0.639513108595
0.643588837015
0.648122930783
0.653160546809
0.658751013949
0.664947929070
0.671809147375
0.679396611839
0.687775942971
0.697015676121
0.707185986047
0.718356678253
0.730594170404
0.743957197412
0.758491211742
0.774222199568
0.726131418097
0.726237420756
0.726502028369
0.726927179187
0.727516521815
0.728275445896
0.729211122527
0.730332555591
0.731650646142
0.733178271585
0.734930380572
0.736924103637
0.739178878864
0.741716591175
0.744561723081
0.747741513828
0.751286122674
0.755228790395
0.759605990922
0.764457562007
0.769826799792
0.775760496714
0.782308894873
0.789525517217
0.797466825890
0.806191640282
0.815760226515
0.826232947584
0.837668347126
0.850120550873
0.863635953012
0.878249381819
0.893980368561
0.842934550925
0.843040554647
0.843320291045
0.843775763941
0.844410726513
0.845230708184
0.846243051155
0.847456956905
0.848883543483
0.850535914271
0.852429238389
0.854580842221
0.857010310875
0.859739597588
0.862793138277
0.866197967397
0.869983829983
0.874183283061
0.878831777499
0.883967708508
0.889632419399
0.895870138553
0.902727823649
0.910254879846
0.918502709860
0.927524044043
0.937371989275
0.948098730592
0.959753827083
0.972382078920
0.986021027719
1.000698309285
1.016429294987
0.963269676918
0.963375681647
0.963669268717
0.964152495395
0.964829198199
0.965705016501
0.966787424715
0.968085772982
0.969611336474
0.971377373266
0.973399190307
0.975694216494
0.978282081150
0.981184695476
0.984426333653
0.988033709245
0.992036041263
0.996465102663
1.001355242105
1.006743367317
1.012668875445
1.019173512125
1.026301136736
1.034097366521
1.042609067350
1.051883654782
1.061968167737
1.072908082000
1.084745847864
1.097519173660
1.111259143059
1.125988349524
1.141719334243
1.087234879945
1.087340885611
1.087646972386
1.088155240483
1.088869591225
1.089795747619
1.090941282094
1.092315651104
1.093930236249
1.095798391378
1.097935494729
1.100359004670
1.103088516960
1.106145820723
1.109554949464
1.113342222485
1.117536270816
1.122168040429
1.127270763749
1.132879888565
1.139032951085
1.145769377393
1.153130194808
1.161157632116
1.169894585770
1.179383928985
1.189667643873
1.200785765908
1.212775148456
1.225668086437
1.239490883721
1.254262503506
1.269993487309
1.214932727836
1.215038734357
1.215355903218
1.215886368379
1.216634079963
1.217604821994
1.218806235842
1.220247848893
1.221941107801
1.223899415429
1.226138170202
1.228674806071
1.231528830743
1.234721859078
1.238277637801
1.242222056727
1.246583140659
1.251391014910
1.256677836042
1.262477677918
1.268826361591
1.275761215947
1.283320754676
1.291544254297
1.300471218212
1.310140714003
1.320590576486
1.331856479120
1.343970892706
1.356961973870
1.370852455406
1.385658640654
1.401389623621
1.346470482199
1.346576489484
1.346903261124
1.347452956797
1.348229561806
1.349238902231
1.350488664424
1.351988418191
1.353749642849
1.355785755000
1.358112136484
1.360746160497
1.363707213283
1.367016708171
1.370698087987
1.374776811053
1.379280315087
1.384237952333
1.389680888218
1.395641954790
1.402155449231
1.409256866946
1.416982558424
1.425369299420
1.434453765638
1.444271906480
1.454858218438
1.466244928059
1.478461107640
1.491531763683
1.505476956714
1.520311027210
1.536042009431
1.481960309856
1.482066317801
1.482401155083
1.482967000106
1.483767861938
1.484809593189
1.486099906029
1.487648390573
1.489466534680
1.491567743822
1.493967359340
1.496682672886
1.499732934332
1.503139349849
1.506925066149
1.511115136207
1.515736461009
1.520817701098
1.526389150948
1.532482568548
1.539130952086
1.546368255503
1.554229035062
1.562748020286
1.571959604943
1.581897257677
1.592592857733
1.604075969349
1.616373078716
1.629506829210
1.643495302151
1.658351398757
1.674082380333
1.621519497100
1.621625505593
1.621966816359
1.622545620462
1.623365941256
1.624433645396
1.625756455969
1.627343966939
1.629207657806
1.631360907081
1.633819002736
1.636599147346
1.639720455152
1.643203937688
1.647072474024
1.651350761081
1.656065238793
1.661243984354
1.666916569220
1.673113872228
1.679867842040
1.687211202469
1.695177095088
1.703798655188
1.713108519886
1.723138271137
1.733917821875
1.745474760386
1.757833676074
1.771015498145
1.785036886019
1.799909714477
1.815640695518
1.765270667895
1.765376676813
1.765722815785
1.766311283203
1.767146108844
1.768233163442
1.769580169641
1.771196713450
1.773094255067
1.775286137596
1.777787591747
1.780615734219
1.783789556942
1.787329903841
1.791259431262
1.795602547607
1.800385327246
1.805635393248
1.811381763182
1.817654652025
1.824485226414
1.831905304999
1.839947000842
1.848642303697
1.858022602857
1.868118155137
1.878957507598
1.890566890557
1.902969602944
1.916185418352
1.930230044992
1.945114674881
1.960845655506
1.913342007106
1.913448016320
1.913797286202
1.914392017697
1.915236240337
1.916335820868
1.917698472785
1.919333765858
1.921253134504
1.923469883503
1.925999189128
1.928858093393
1.932065488590
1.935642088836
1.939610384820
1.943994577449
1.948820485591
1.954115422770
1.959908037348
1.966228110732
1.973106308379
1.980573879069
1.988662299190
1.997402860749
2.006826204678
2.016961804771
2.027837412289
2.039478476701
2.051907563752
2.065143797317
2.079202355372
2.094094051606
2.109825031943
2.065867489700
2.065973499073
2.066324151059
2.066921644703
2.067770003357
2.068875082897
2.070244580634
2.071888044026
2.073816878060
2.076044349783
2.078585588125
2.081457576695
2.084679136805
2.088270897466
2.092255248638
2.096656273493
2.101499655035
2.106812552005
2.112623438794
2.118961904026
2.125858402730
2.133343957733
2.141449807096
2.150206996367
2.159645917174
2.169795797351
2.180684152351
2.192336213062
2.204774350747
2.218017525118
2.232080785500
2.246974856385
2.262705836566
2.222987116725
2.223093126113
2.223443360005
2.224040011157
2.224887091040
2.225990438178
2.227357727255
2.228998478166
2.230924063867
2.233147715617
2.235684523762
2.238551431836
2.241767221287
2.245352483648
2.249329576498
2.253722559022
2.258557102542
2.263860370951
2.269660865695
2.275988229817
2.282873005732
2.290346341919
2.298439644781
2.307184173643
2.316610579447
2.326748391257
2.337625459336
2.349267369158
2.361696847031
2.374933184245
2.388991711871
2.403883360915
2.419614341081
2.384847158690
2.384953167945
2.385301132114
2.385893233082
2.386733464436
2.387827640436
2.389183406161
2.390810248010
2.392719503525
2.394924369189
2.397439904480
2.400283030032
2.403472517323
2.407028966804
2.410974770855
2.415334057432
2.420132609734
2.425397756695
2.431158228705
2.437443972649
2.444285920255
2.451715703998
2.459765315484
2.468466702634
2.477851304202
2.487949523590
2.498790148653
2.510399730463
2.522801941634
2.536016943229
2.550060797203
2.564944966729
2.580675947024
2.551600406716
2.551706415689
2.552050207153
2.552633947085
2.553461604310
2.554538960654
2.555873622896
2.557475035822
2.559354495456
2.561525161243
2.564002065633
2.566802119055
2.569944107845
2.573448682155
2.577338330316
2.581637335548
2.586371710258
2.591569102568
2.597258669060
2.603470907176
2.610237440267
2.617590748040
2.625563835352
2.634189833003
2.643501525885
2.653530806796
2.664308058986
2.675861477576
2.688216349603
2.701394324357
2.715412718582
2.730283911950
2.746014892523
2.723406431620
2.723512440156
2.723850105058
2.724421570603
2.725230772578
2.726283450078
2.727587160013
2.729151293727
2.730987094969
2.733107678209
2.735528045929
2.738265103116
2.741337666686
2.744766467050
2.748574138405
2.752785193696
2.757425979449
2.762524604874
2.768110838794
2.774215967014
2.780872601858
2.788114434734
2.795975921966
2.804491893954
2.813697078341
2.823625529945
2.834309964478
2.845781000646
2.858066327203
2.871189828416
2.885170722418
2.900022788028
2.915753769028
2.900431850745
2.900537858691
2.900867393454
2.901422570812
2.902207283278
2.903227213993
2.904489854434
2.906004525466
2.907782401258
2.909836535290
2.912181887416
2.914835350456
2.917815774329
2.921143985141
2.924842796026
2.928937005779
2.933453380522
2.938420612620
2.943869249985
2.949831587559
2.956341511308
2.963434283419
2.971146255718
2.979514496771
2.988576317149
2.998368677592
3.008927467512
3.020286648327
3.032477269818
3.045526390786
3.059455968543
3.074281821555
3.090012803131
3.082850602130
3.082956609334
3.083275962805
3.083810741735
3.084564782653
3.085543695839
3.086754886744
3.088207582162
3.089912861000
3.091883689334
3.094134959063
3.096683529030
3.099548266931
3.102750089745
3.106311999756
3.110259112456
3.114618671701
3.119420046348
3.124694701230
3.130476133595
3.136799764047
3.143702768511
3.151223834736
3.159402823540
3.168280311571
3.177896989551
3.188292889242
3.199506416295
3.211573179222
3.224524633058
3.238386606145
3.253177850385
3.268908832686
3.270844225217
3.270950231527
3.271257308426
3.271767488822
3.272484537557
3.273413970808
3.274563081553
3.275940971177
3.277558587665
3.279428770668
3.281566303289
3.283987969898
3.286712618679
3.289761227060
3.293156967464
3.296925270107
3.301093878534
3.305692892409
3.310754790441
3.316314424273
3.322408971500
3.329077832486
3.336362451325
3.344306035729
3.352953144065
3.362349100330
3.372539190824
3.383567592625
3.395475990046
3.408301862758
3.422076495703
3.436822882884
3.452553866057
3.464602147001
3.464708152273
3.465000818309
3.465482119945
3.466155731063
3.467027047677
3.468103217460
3.469393176508
3.470907694912
3.472659432316
3.474663003979
3.476935057113
3.479494356641
3.482361878981
3.485560911851
3.489117157381
3.493058834913
3.497416778584
3.502224523139
3.507518369084
3.513337415195
3.519723542176
3.526721325539
3.534377848131
3.542742372436
3.551865819468
3.561799984498
3.572596401897
3.584304758399
3.596970762989
3.610633448416
3.625322061678
3.641053045865
3.664321972101
3.664427976196
3.664704065413
3.665152141555
3.665775763877
3.666580177178
3.667572344664
3.668760988486
3.670156641698
3.671771714166
3.673620573597
3.675719641860
3.678087506138
3.680745044013
3.683715561150
3.687024939718
3.690701794893
3.694777635652
3.699287024450
3.704267728040
3.709760848406
3.715810918171
3.722465938265
3.729777326299
3.737799730643
3.746590645742
3.756209736128
3.766717737288
3.778174751717
3.790637711827
3.804156789946
3.818770732708
3.834501718047
3.870209774604
3.870315777388
3.870573102911
3.870983558772
3.871550560042
3.872279164819
3.873176107558
3.874249839727
3.875510585790
3.876970418634
3.878643355885
3.880545477351
3.882695063301
3.885112753214
3.887821724470
3.890847890222
3.894220115161
3.897970447035
3.902134360394
3.906751006958
3.911863463962
3.917518967347
3.923769110114
3.930669976397
3.938282167043
3.946670649314
3.955904325965
3.966055157048
3.977196565810
3.989400703504
4.002733960899
4.017250088277
4.032981074896
4.082480388290
4.082586389640
4.082822761029
4.083191178743
4.083694875521
4.084338685610
4.085129068839
4.086074143296
4.087183741315
4.088469493260
4.089944939451
4.091625669673
4.093529489891
4.095676616283
4.098089897047
4.100795062622
4.103821004811
4.107200084874
4.110968469701
4.115166493697
4.119839041576
4.125035943676
4.130812369917
4.137229200271
4.144353336760
4.152257901045
4.161022225066
4.170731472770
4.181475589796
4.193346983523
4.206435752647
4.220820365397
4.236551353417
4.301357688491
4.301463688293
4.301676945621
4.301998918702
4.302432608858
4.302982597481
4.303655030473
4.304457627751
4.305399734748
4.306492414496
4.307748576277
4.309183138318
4.310813223784
4.312658390786
4.314740898078
4.317086008821
4.319722335079
4.322682225829
4.326002200992
4.329723433243
4.333892278107
4.338560850631
4.343787643625
4.349638177509
4.356185664510
4.363511658924
4.371706646808
4.380870490571
4.391112545299
4.402550963814
4.415309764053
4.429509450434
4.445240439966
4.527074848316
4.527180846470
4.527368945922
4.527640125877
4.527997113798
4.528444248481
4.528987344783
4.529633662021
4.530391952387
4.531272565696
4.532287597946
4.533451078728
4.534779196759
4.536290565340
4.538006531024
4.539951529934
4.542153496963
4.544644333785
4.547460442087
4.550643328734
4.554240289612
4.558305178580
4.562899267304
4.568092200922
4.573963054314
4.580601496787
4.588109085484
4.596600744704
4.606206575642
4.617074284681
4.629372415170
4.643291811233
4.659022802376
4.759874516158
4.759980512576
4.760141791792
4.760357929396
4.760631512043
4.760966768111
4.761369205310
4.761845560891
4.762403871012
4.763053601362
4.763805821381
4.764673417933
4.765671349603
4.766816945408
4.768130253391
4.769634445912
4.771356289683
4.773326689898
4.775581319111
4.778161342934
4.781114256104
4.784494844106
4.788366287384
4.792801427816
4.797884221784
4.803711415123
4.810394504773
4.818062139259
4.826863383676
4.836973183611
4.848604568524
4.862044150077
4.877775142917
5.000000000000
5.000114724118
5.000248850200
5.000405659477
5.000588988095
5.000803320964
5.001053901475
5.001346859773
5.001689362722
5.002089789238
5.002557935265
5.003105253420
5.003745133171
5.004493228392
5.005367840313
5.006390365244
5.007585818002
5.008983443873
5.010617434060
5.012527762128
5.014761161911
5.017372270795
5.020424966356
5.023993929047
5.028166469162
5.033044662779
5.038747848920
5.045415549040
5.053210880243
5.062324545747
5.072979500199
5.085436403993
5.100000000000
