# vtk DataFile Version 2.0
TITLE = "Quad data"
ASCII
DATASET STRUCTURED_GRID
DIMENSIONS 65 65 1
POINTS 4225 FLOAT
0.000000 0.000000 0.000000
0.000000 0.015625 0.000000
0.000000 0.031250 0.000000
0.000000 0.046875 0.000000
0.000000 0.062500 0.000000
0.000000 0.078125 0.000000
0.000000 0.093750 0.000000
0.000000 0.109375 0.000000
0.000000 0.125000 0.000000
0.000000 0.140625 0.000000
0.000000 0.156250 0.000000
0.000000 0.171875 0.000000
0.000000 0.187500 0.000000
0.000000 0.203125 0.000000
0.000000 0.218750 0.000000
0.000000 0.234375 0.000000
0.000000 0.250000 0.000000
0.000000 0.265625 0.000000
0.000000 0.281250 0.000000
0.000000 0.296875 0.000000
0.000000 0.312500 0.000000
0.000000 0.328125 0.000000
0.000000 0.343750 0.000000
0.000000 0.359375 0.000000
0.000000 0.375000 0.000000
0.000000 0.390625 0.000000
0.000000 0.406250 0.000000
0.000000 0.421875 0.000000
0.000000 0.437500 0.000000
0.000000 0.453125 0.000000
0.000000 0.468750 0.000000
0.000000 0.484375 0.000000
0.000000 0.500000 0.000000
0.000000 0.515625 0.000000
0.000000 0.531250 0.000000
0.000000 0.546875 0.000000
0.000000 0.562500 0.000000
0.000000 0.578125 0.000000
0.000000 0.593750 0.000000
0.000000 0.609375 0.000000
0.000000 0.625000 0.000000
0.000000 0.640625 0.000000
0.000000 0.656250 0.000000
0.000000 0.671875 0.000000
0.000000 0.687500 0.000000
0.000000 0.703125 0.000000
0.000000 0.718750 0.000000
0.000000 0.734375 0.000000
0.000000 0.750000 0.000000
0.000000 0.765625 0.000000
0.000000 0.781250 0.000000
0.000000 0.796875 0.000000
0.000000 0.812500 0.000000
0.000000 0.828125 0.000000
0.000000 0.843750 0.000000
0.000000 0.859375 0.000000
0.000000 0.875000 0.000000
0.000000 0.890625 0.000000
0.000000 0.906250 0.000000
0.000000 0.921875 0.000000
0.000000 0.937500 0.000000
0.000000 0.953125 0.000000
0.000000 0.968750 0.000000
0.000000 0.984375 0.000000
0.000000 1.000000 0.000000
0.015625 0.000000 0.000000
0.015625 0.015625 0.000000
0.015625 0.031250 0.000000
0.015625 0.046875 0.000000
0.015625 0.062500 0.000000
0.015625 0.078125 0.000000
0.015625 0.093750 0.000000
0.015625 0.109375 0.000000
0.015625 0.125000 0.000000
0.015625 0.140625 0.000000
0.015625 0.156250 0.000000
0.015625 0.171875 0.000000
0.015625 0.187500 0.000000
0.015625 0.203125 0.000000
0.015625 0.218750 0.000000
0.015625 0.234375 0.000000
0.015625 0.250000 0.000000
0.015625 0.265625 0.000000
0.015625 0.281250 0.000000
0.015625 0.296875 0.000000
0.015625 0.312500 0.000000
0.015625 0.328125 0.000000
0.015625 0.343750 0.000000
0.015625 0.359375 0.000000
0.015625 0.375000 0.000000
0.015625 0.390625 0.000000
0.015625 0.406250 0.000000
0.015625 0.421875 0.000000
0.015625 0.437500 0.000000
0.015625 0.453125 0.000000
0.015625 0.468750 0.000000
0.015625 0.484375 0.000000
0.015625 0.500000 0.000000
0.015625 0.515625 0.000000
0.015625 0.531250 0.000000
0.015625 0.546875 0.000000
0.015625 0.562500 0.000000
0.015625 0.578125 0.000000
0.015625 0.593750 0.000000
0.015625 0.609375 0.000000
0.015625 0.625000 0.000000
0.015625 0.640625 0.000000
0.015625 0.656250 0.000000
0.015625 0.671875 0.000000
0.015625 0.687500 0.000000
0.015625 0.703125 0.000000
0.015625 0.718750 0.000000
0.015625 0.734375 0.000000
0.015625 0.750000 0.000000
0.015625 0.765625 0.000000
0.015625 0.781250 0.000000
0.015625 0.796875 0.000000
0.015625 0.812500 0.000000
0.015625 0.828125 0.000000
0.015625 0.843750 0.000000
0.015625 0.859375 0.000000
0.015625 0.875000 0.000000
0.015625 0.890625 0.000000
0.015625 0.906250 0.000000
0.015625 0.921875 0.000000
0.015625 0.937500 0.000000
0.015625 0.953125 0.000000
0.015625 0.968750 0.000000
0.015625 0.984375 0.000000
0.015625 1.000000 0.000000
0.031250 0.000000 0.000000
0.031250 0.015625 0.000000
0.031250 0.031250 0.000000
0.031250 0.046875 0.000000
0.031250 0.062500 0.000000
0.031250 0.078125 0.000000
0.031250 0.093750 0.000000
0.031250 0.109375 0.000000
0.031250 0.125000 0.000000
0.031250 0.140625 0.000000
0.031250 0.156250 0.000000
0.031250 0.171875 0.000000
0.031250 0.187500 0.000000
0.031250 0.203125 0.000000
0.031250 0.218750 0.000000
0.031250 0.234375 0.000000
0.031250 0.250000 0.000000
0.031250 0.265625 0.000000
0.031250 0.281250 0.000000
0.031250 0.296875 0.000000
0.031250 0.312500 0.000000
0.031250 0.328125 0.000000
0.031250 0.343750 0.000000
0.031250 0.359375 0.000000
0.031250 0.375000 0.000000
0.031250 0.390625 0.000000
0.031250 0.406250 0.000000
0.031250 0.421875 0.000000
0.031250 0.437500 0.000000
0.031250 0.453125 0.000000
0.031250 0.468750 0.000000
0.031250 0.484375 0.000000
0.031250 0.500000 0.000000
0.031250 0.515625 0.000000
0.031250 0.531250 0.000000
0.031250 0.546875 0.000000
0.031250 0.562500 0.000000
0.031250 0.578125 0.000000
0.031250 0.593750 0.000000
0.031250 0.609375 0.000000
0.031250 0.625000 0.000000
0.031250 0.640625 0.000000
0.031250 0.656250 0.000000
0.031250 0.671875 0.000000
0.031250 0.687500 0.000000
0.031250 0.703125 0.000000
0.031250 0.718750 0.000000
0.031250 0.734375 0.000000
0.031250 0.750000 0.000000
0.031250 0.765625 0.000000
0.031250 0.781250 0.000000
0.031250 0.796875 0.000000
0.031250 0.812500 0.000000
0.031250 0.828125 0.000000
0.031250 0.843750 0.000000
0.031250 0.859375 0.000000
0.031250 0.875000 0.000000
0.031250 0.890625 0.000000
0.031250 0.906250 0.000000
0.031250 0.921875 0.000000
0.031250 0.937500 0.000000
0.031250 0.953125 0.000000
0.031250 0.968750 0.000000
0.031250 0.984375 0.000000
0.031250 1.000000 0.000000
0.046875 0.000000 0.000000
0.046875 0.015625 0.000000
0.046875 0.031250 0.000000
0.046875 0.046875 0.000000
0.046875 0.062500 0.000000
0.046875 0.078125 0.000000
0.046875 0.093750 0.000000
0.046875 0.109375 0.000000
0.046875 0.125000 0.000000
0.046875 0.140625 0.000000
0.046875 0.156250 0.000000
0.046875 0.171875 0.000000
0.046875 0.187500 0.000000
0.046875 0.203125 0.000000
0.046875 0.218750 0.000000
0.046875 0.234375 0.000000
0.046875 0.250000 0.000000
0.046875 0.265625 0.000000
0.046875 0.281250 0.000000
0.046875 0.296875 0.000000
0.046875 0.312500 0.000000
0.046875 0.328125 0.000000
0.046875 0.343750 0.000000
0.046875 0.359375 0.000000
0.046875 0.375000 0.000000
0.046875 0.390625 0.000000
0.046875 0.406250 0.000000
0.046875 0.421875 0.000000
0.046875 0.437500 0.000000
0.046875 0.453125 0.000000
0.046875 0.468750 0.000000
0.046875 0.484375 0.000000
0.046875 0.500000 0.000000
0.046875 0.515625 0.000000
0.046875 0.531250 0.000000
0.046875 0.546875 0.000000
0.046875 0.562500 0.000000
0.046875 0.578125 0.000000
0.046875 0.593750 0.000000
0.046875 0.609375 0.000000
0.046875 0.625000 0.000000
0.046875 0.640625 0.000000
0.046875 0.656250 0.000000
0.046875 0.671875 0.000000
0.046875 0.687500 0.000000
0.046875 0.703125 0.000000
0.046875 0.718750 0.000000
0.046875 0.734375 0.000000
0.046875 0.750000 0.000000
0.046875 0.765625 0.000000
0.046875 0.781250 0.000000
0.046875 0.796875 0.000000
0.046875 0.812500 0.000000
0.046875 0.828125 0.000000
0.046875 0.843750 0.000000
0.046875 0.859375 0.000000
0.046875 0.875000 0.000000
0.046875 0.890625 0.000000
0.046875 0.906250 0.000000
0.046875 0.921875 0.000000
0.046875 0.937500 0.000000
0.046875 0.953125 0.000000
0.046875 0.968750 0.000000
0.046875 0.984375 0.000000
0.046875 1.000000 0.000000
0.062500 0.000000 0.000000
0.062500 0.015625 0.000000
0.062500 0.031250 0.000000
0.062500 0.046875 0.000000
0.062500 0.062500 0.000000
0.062500 0.078125 0.000000
0.062500 0.093750 0.000000
0.062500 0.109375 0.000000
0.062500 0.125000 0.000000
0.062500 0.140625 0.000000
0.062500 0.156250 0.000000
0.062500 0.171875 0.000000
0.062500 0.187500 0.000000
0.062500 0.203125 0.000000
0.062500 0.218750 0.000000
0.062500 0.234375 0.000000
0.062500 0.250000 0.000000
0.062500 0.265625 0.000000
0.062500 0.281250 0.000000
0.062500 0.296875 0.000000
0.062500 0.312500 0.000000
0.062500 0.328125 0.000000
0.062500 0.343750 0.000000
0.062500 0.359375 0.000000
0.062500 0.375000 0.000000
0.062500 0.390625 0.000000
0.062500 0.406250 0.000000
0.062500 0.421875 0.000000
0.062500 0.437500 0.000000
0.062500 0.453125 0.000000
0.062500 0.468750 0.000000
0.062500 0.484375 0.000000
0.062500 0.500000 0.000000
0.062500 0.515625 0.000000
0.062500 0.531250 0.000000
0.062500 0.546875 0.000000
0.062500 0.562500 0.000000
0.062500 0.578125 0.000000
0.062500 0.593750 0.000000
0.062500 0.609375 0.000000
0.062500 0.625000 0.000000
0.062500 0.640625 0.000000
0.062500 0.656250 0.000000
0.062500 0.671875 0.000000
0.062500 0.687500 0.000000
0.062500 0.703125 0.000000
0.062500 0.718750 0.000000
0.062500 0.734375 0.000000
0.062500 0.750000 0.000000
0.062500 0.765625 0.000000
0.062500 0.781250 0.000000
0.062500 0.796875 0.000000
0.062500 0.812500 0.000000
0.062500 0.828125 0.000000
0.062500 0.843750 0.000000
0.062500 0.859375 0.000000
0.062500 0.875000 0.000000
0.062500 0.890625 0.000000
0.062500 0.906250 0.000000
0.062500 0.921875 0.000000
0.062500 0.937500 0.000000
0.062500 0.953125 0.000000
0.062500 0.968750 0.000000
0.062500 0.984375 0.000000
0.062500 1.000000 0.000000
0.078125 0.000000 0.000000
0.078125 0.015625 0.000000
0.078125 0.031250 0.000000
0.078125 0.046875 0.000000
0.078125 0.062500 0.000000
0.078125 0.078125 0.000000
0.078125 0.093750 0.000000
0.078125 0.109375 0.000000
0.078125 0.125000 0.000000
0.078125 0.140625 0.000000
0.078125 0.156250 0.000000
0.078125 0.171875 0.000000
0.078125 0.187500 0.000000
0.078125 0.203125 0.000000
0.078125 0.218750 0.000000
0.078125 0.234375 0.000000
0.078125 0.250000 0.000000
0.078125 0.265625 0.000000
0.078125 0.281250 0.000000
0.078125 0.296875 0.000000
0.078125 0.312500 0.000000
0.078125 0.328125 0.000000
0.078125 0.343750 0.000000
0.078125 0.359375 0.000000
0.078125 0.375000 0.000000
0.078125 0.390625 0.000000
0.078125 0.406250 0.000000
0.078125 0.421875 0.000000
0.078125 0.437500 0.000000
0.078125 0.453125 0.000000
0.078125 0.468750 0.000000
0.078125 0.484375 0.000000
0.078125 0.500000 0.000000
0.078125 0.515625 0.000000
0.078125 0.531250 0.000000
0.078125 0.546875 0.000000
0.078125 0.562500 0.000000
0.078125 0.578125 0.000000
0.078125 0.593750 0.000000
0.078125 0.609375 0.000000
0.078125 0.625000 0.000000
[...]
POINT_DATA 4225
SCALARS phi FLOAT 1
LOOKUP_TABLE default
0.000000000000
0.000000059605
0.000000953674
0.000004827976
0.000015258789
0.000037252903
0.000077247620
0.000143110752
0.000244140625
0.000391066074
0.000596046448
0.000872671604
0.001235961914
0.001702368259
0.002289772034
0.003017485142
0.003906250000
0.004978239536
0.006257057190
0.007767736912
0.009536743164
0.011591970921
0.013962745667
0.016679823399
0.019775390625
0.023283064365
0.027237892151
0.031676352024
0.036636352539
0.042157232761
0.048279762268
0.055046141148
0.062500000000
0.070686399937
0.079651832581
0.089444220066
0.100112915039
0.111708700657
0.124283790588
0.137891829014
0.152587890625
0.168428480625
0.185471534729
0.203776419163
0.223403930664
0.244416296482
0.266877174377
0.290851652622
0.316406250000
0.343608915806
0.372529029846
0.403237402439
0.435806274414
0.470309317112
0.506821632385
0.545419752598
0.586181640625
0.629186689854
0.674515724182
0.722250998020
0.772476196289
0.825276434422
0.880738258362
0.938949644566
1.000000000000
0.000000059605
0.000000349423
0.000000639242
0.000003121952
0.000011395994
0.000030480290
0.000066819619
0.000128286819
0.000224183815
0.000365242140
0.000563623240
0.000832918649
0.001188150101
0.001645769611
0.002223659525
0.002941132559
0.003818931825
0.004879230851
0.006145633601
0.007643174480
0.009398318352
0.011438960538
0.013794426832
0.016495473497
0.019574287275
0.023064485387
0.027001115537
0.031420655913
0.036361015192
0.041861532535
0.047962977594
0.054707550510
0.062138881916
0.070302032932
0.079243495171
0.089011190737
0.099654472222
0.111224122709
0.123772355770
0.137352815464
0.152020576336
0.167832143418
0.184845452221
0.203119868740
0.222716189444
0.243696641276
0.266124881646
0.290065998428
0.315586509948
0.342754364979
0.371638942726
0.402311052812
0.434842935255
0.469308260444
0.505782129098
0.544341072217
0.585063051001
0.628027456740
0.673315110633
0.721008263492
0.771190595212
0.823947213748
0.879364652914
0.937530867001
0.998535215855
0.000000953674
0.000000639242
-0.000001868081
-0.000004375404
-0.000003277056
0.000006452644
0.000031263746
0.000079033091
0.000159065674
0.000282095431
0.000460285725
0.000707229650
0.001037950229
0.001468900557
0.002017963896
0.002704453744
0.003549113888
0.004574118443
0.005803071881
0.007261009057
0.008974395224
0.010971126049
0.013280527626
0.015933356482
0.018961799590
0.022399474370
0.026281428696
0.030644140901
0.035525519780
0.040964904591
0.047003065062
0.053682201384
0.061045944220
0.069139354704
0.078008924436
0.087702575489
0.098269660403
0.109760962188
0.122228694319
0.135726500735
0.150309455838
0.166034064488
0.182958261998
0.201141414132
0.220644317096
0.241529197530
0.263859712503
0.287700949494
0.313119426385
0.340183091436
0.368961323268
0.399524930827
0.431946153351
0.466298660311
0.502657551347
0.541099356170
0.581702034421
0.624544975472
0.669708998119
0.717276350103
0.767330707317
0.819957172446
0.875242272543
0.933273954671
0.994141578674
0.000004827976
0.000003121952
-0.000004375404
-0.000015478432
-0.000026581459
-0.000032656404
-0.000027250370
-0.000002483873
0.000050950358
0.000143788184
0.000288194580
0.000497763996
0.000787520608
0.001173918493
0.001674841759
0.002309604634
0.003098951541
0.004065057151
0.005231526424
0.006623394642
0.008267127437
0.010190620808
0.012423201139
0.014995625216
0.017940080234
0.021290183807
0.025080983975
0.029348959214
0.034132018434
0.039469500989
0.045402176677
0.051972245743
0.059223338878
0.067200517227
0.075950272380
0.085520526379
0.095960631714
0.107321371321
0.119654958582
0.133015037319
0.147456681793
0.163036396697
0.179812117151
0.197843208694
0.217190467277
0.237916119247
0.260083821341
0.283758660662
0.309007154661
0.335897251113
0.364498328082
0.394881193879
0.427118087009
0.461282676100
0.497450059810
0.535696766696
0.576100755042
0.618741412607
0.663699556268
0.711057431484
0.760898711507
0.813308496176
0.868373310141
0.926181100467
0.986821234226
0.000015258789
0.000011395994
-0.000003277056
-0.000026581459
-0.000054913945
-0.000083246430
-0.000105124948
-0.000112668574
-0.000096568552
-0.000046087632
0.000050940414
0.000208111145
0.000440449713
0.000764411049
0.001197880012
0.001760171491
0.002472030490
0.003355632195
0.004434582021
0.005733915651
0.007280099075
0.009101028605
0.011226030907
0.013685863010
0.016512712323
0.019740196647
0.023403364185
0.027538693545
0.032184093754
0.037378904255
0.043163894916
0.049581266031
0.056674648323
0.064489102944
0.073071121477
0.082468625933
0.092730968752
0.103908932800
0.116054731369
0.129222008167
0.143465837319
0.158842723357
0.175410601215
0.193228836217
0.212358224069
0.232860990841
0.254800792952
0.278242717150
0.303253280484
0.329900430273
0.358253544068
0.388383429598
0.420362324706
0.454263897272
0.490163245095
0.528136895761
0.568262806443
0.610620363648
0.655290382860
0.702355108058
0.751898211052
0.804004790609
0.858761371379
0.916255902829
0.976577758789
0.000037252903
0.000030480290
0.000006452644
-0.000032656404
-0.000083246430
-0.000140290424
-0.000197334419
-0.000246496923
-0.000278468359
-0.000282510574
-0.000246456438
-0.000156709542
0.000001756048
0.000245395979
0.000592095749
0.001061170827
0.001673366734
0.002450859119
0.003417253812
0.004597586868
0.006018324604
0.007707363631
0.009694030874
0.012009083592
0.014684709400
0.017754526274
0.021253582571
0.025218357028
0.029686758781
0.034698127359
0.040293232699
0.046514275142
0.053404885438
0.061010124751
0.069376484651
0.078551887123
0.088585684559
0.099528659759
0.111433025926
0.124352426660
0.138341935957
0.153458058196
0.169758728133
0.187303310890
0.206152601941
0.226368827095
0.248015642476
0.271158134502
0.295862819851
0.322197645428
0.350231988319
0.380036655736
0.411683884947
0.445247343185
0.480802127539
0.518424764810
0.558193211322
0.600186852681
0.644486503467
0.691174406837
0.740334234035
0.792051083828
0.846411481939
0.903503380679
0.963416159153
0.000077247620
0.000066819619
0.000031263746
-0.000027250370
-0.000105124948
-0.000197334419
-0.000297425379
-0.000397516340
-0.000488297390
-0.000559029865
-0.000597546050
-0.000590248925
-0.000522111956
-0.000376678932
-0.000136063821
0.000219049332
0.000709406499
0.001357183735
0.002185987240
0.003220853403
0.004488248844
0.006016070442
0.007833645364
0.009971731085
0.012462515409
0.015339616479
0.018638082794
0.022394393217
0.026646456981
0.031433613703
0.036796633380
0.042777716399
0.049420493538
0.056770025968
0.064872805253
0.073776753349
0.083531222603
0.094186995752
0.105796285915
0.118412736591
0.132091421653
0.146888845337
0.162862942232
0.180073077270
0.198580045711
0.218446073121
0.239734815356
0.262511358531
0.286842218990
0.312795343268
0.340440108045
0.369847320082
0.401089216160
0.434239462981
0.469373157066
0.506566824619
0.545898421353
0.587447332286
0.631294371490
0.677521781787
0.726213234422
0.777453828728
0.831330091869
0.887929978797
0.947342872620
0.000143110752
0.000128286819
0.000079033091
-0.000002483873
-0.000112668574
-0.000246496923
-0.000397516340
-0.000557845667
-0.000718174995
-0.000867765447
-0.000994448973
-0.001084628150
-0.001123276017
-0.001093935929
-0.000978721434
-0.000758316175
-0.000411973805
0.000082482082
0.000748658009
0.001611590661
0.002697746926
0.004035023928
0.005652749054
0.007581679976
0.009854004672
0.012503341440
0.015564738911
0.019074676062
0.023071062225
0.027593237091
0.032681970717
0.038379463535
0.044729346346
0.051776680331
0.059567957044
0.068151098416
0.077575456753
0.087891814730
0.099152385390
0.111410812137
0.124722168728
0.139142959265
0.154731118186
0.171546010247
0.189648430510
0.209100604323
0.229966187296
0.252310265275
0.276199354309
0.301701400611
0.328885780508
0.357823300389
0.388586196629
0.421248135512
0.455884213127
0.492570955246
0.531386317184
0.572409683622
0.615721868419
0.661405114399
0.709543093140
0.760220904794
0.813525078011
0.869543570021
0.928365767002
0.000244140625
0.000224183815
0.000159065674
0.000050950358
-0.000096568552
-0.000278468359
-0.000488297390
-0.000718174995
-0.000958791476
-0.001199407957
-0.001427856244
-0.001630538685
-0.001792428034
-0.001897067333
-0.001926569812
-0.001861618795
-0.001681467627
-0.001363939611
-0.000885427947
-0.000220895695
0.000656124270
0.001773529290
0.003160646947
0.004848235093
0.006868481863
0.009255005696
0.012042855346
0.015268509897
0.018969878766
0.023186301717
0.027958548864
0.033328820677
0.039340747981
0.046039391965
0.053471244175
0.061684226518
0.070727691261
0.080652421024
0.091510628778
0.103355957837
0.116243481855
0.130229704811
0.145372561000
0.161731415022
0.179367061760
0.198341726364
0.218719064229
0.240564160963
0.263943532361
0.288925124357
0.315578312989
0.343973904335
0.374184134455
0.406282669311
0.440344604682
0.476446466056
0.514666208514
0.555083216597
0.597778304165
0.642833714251
0.690333118942
0.740361619299
0.793005745358
0.848353456274
0.906494140625
0.000391066074
0.000365242140
0.000282095431
0.000143788184
-0.000046087632
-0.000282510574
-0.000559029865
-0.000867765447
-0.001199407957
-0.001543218660
-0.001887029363
-0.002217242313
-0.002518830100
-0.002775335558
-0.002968871685
-0.003080121565
-0.003088338299
-0.002971344951
-0.002705534492
-0.002265869765
-0.001625883440
-0.000757677987
0.000368074352
0.001782131585
0.003516681991
0.005605344134
0.008083166882
0.010986629412
0.014353641223
0.018223542147
0.022637102346
0.027636522326
0.033265432937
0.039568895372
0.046593401172
0.054386872221
0.062998660750
0.072479549328
0.082881750860
0.094258908580
0.106666096044
0.120159817122
0.134798005983
0.150640027081
0.167746675142
0.186180175145
0.206004182292
0.227283781990
0.250085489813
0.274477251469
0.300528442755
0.328309869507
0.357893767543
0.389353802596
0.422765070234
0.458204095782
0.495748834220
0.535478670090
0.577474417392
0.621818319497
0.668594049081
0.717886708101
0.769782827849
0.824370369091
0.881738722324
0.000596046448
0.000563623240
0.000460285725
0.000288194580
0.000050940414
-0.000246456438
-0.000597546050
-0.000994448973
-0.001427856244
-0.001887029363
-0.002359800234
-0.002832571106
-0.003290314494
-0.003716573113
-0.004093459806
-0.004401657480
-0.004620419054
-0.004727567401
-0.004699495307
-0.004511165433
-0.004136110278
-0.003546432149
-0.002712803137
-0.001604465096
-0.000189229620
0.001566521968
0.003697838635
0.006241199644
0.009234514570
0.012717123300
0.016729796045
0.021314733345
0.026515566068
0.032377355415
0.038946592918
0.046271200444
0.054400530190
0.063385364677
0.073277916753
0.084131829577
0.096002176620
0.108945461651
0.123019618727
0.138284012175
0.154799436584
0.172628116780
0.191833707804
0.212481294890
0.234637393432
0.258369948950
0.283748337054
0.310843363396
0.339727263616
0.370473703294
0.403157777877
0.437856012617
0.474646362494
0.513608212149
0.554822375815
0.598371097265
0.644338049782
0.692808336176
0.743868488846
0.797606469918
0.854111671448
0.000872671604
0.000832918649
0.000707229650
0.000497763996
0.000208111145
-0.000156709542
-0.000590248925
-0.001084628150
-0.001630538685
-0.002217242313
-0.002832571106
-0.003462927382
-0.004093283659
-0.004707182596
-0.005286736945
-0.005812629498
-0.006264113036
-0.006619010291
-0.006853713902
-0.006943186384
-0.006860960090
-0.006579137194
-0.006068389657
-0.005297959212
-0.004235657344
-0.002847865277
-0.001099533956
0.001045815961
0.003626094111
0.006680640436
0.010250225191
0.014377048941
0.019104742576
0.024478367299
0.030544414641
0.037350806448
0.044946894887
0.053383462439
0.062712721896
0.072988316355
0.084265319208
0.096600234136
0.110050995097
0.124676966309
0.140538942240
0.157699147587
0.176221237255
0.196170296334
0.217612840073
0.240616813846
0.265251593117
0.291587983404
0.319698220232
0.349655969087
0.381536325364
0.415415814314
0.451372390989
0.489485440198
0.529835776456
0.572505643964
0.617578716606
0.665140097974
0.715276321442
0.768075350287
0.823626577854
0.001235961914
0.001188150101
0.001037950229
0.000787520608
0.000440449713
0.000001756048
-0.000522111956
-0.001123276017
-0.001792428034
-0.002518830100
-0.003290314494
-0.004093283659
-0.004912710163
-0.005732136667
-0.006533675882
-0.007298010530
-0.008004393302
-0.008630646825
-0.009153163628
-0.009546906108
-0.009785406506
-0.009840766880
-0.009683659085
-0.009283324751
-0.008607575269
-0.007622791776
-0.006293925141
-0.004584495956
-0.002456594524
0.000129119144
0.003213415339
0.006838494654
0.011047987993
0.015886956567
0.021401891898
0.027640715819
0.034652780470
0.042488868295
0.051201192038
0.060843394738
0.071470549720
0.083139160589
0.095907161215
0.109833915723
0.124980218479
0.141408294072
0.159181797293
0.178365813119
0.199026856682
0.221232873243
0.245053238164
0.270558756871
0.297821664821
0.326915627458
0.357915740178
0.390898528284
0.425941946953
0.463125381197
0.502529645845
0.544236985531
0.588331074704
0.634897017672
0.684021348662
0.735792031934
0.790298461914
0.001702368259
0.001645769611
0.001468900557
0.001173918493
0.000764411049
0.000245395979
-0.000376678932
-0.001093935929
-0.001897067333
-0.002775335558
-0.003716573113
-0.004707182596
-0.005732136667
-0.006774978027
-0.007817819387
-0.008841343437
-0.009824802816
-0.010746020081
-0.011581387677
-0.012305867916
-0.012892992947
-0.013314864737
-0.013542155051
-0.013544105437
-0.013288527205
-0.012741801418
-0.011868878879
-0.010633280120
-0.008997095396
-0.006920984675
-0.004364177635
-0.001284473657
0.002361758174
0.006619579075
0.011535480565
0.017157384461
0.023534642880
0.030718038232
0.038759783222
0.047713520838
0.057634324346
0.068578697285
0.080604573451
0.093771316889
0.108139721882
0.123772012927
0.140731844728
0.159084302167
0.178895900291
0.200234584279
0.223169729424
0.247772141096
0.274114054722
0.302269135747
0.332312479605
0.364320611693
0.398371487340
0.434544491792
0.472920440197
0.513581577609
0.556611579009
0.602095549346
0.650120023600
0.700772966874
0.754143774509
0.002289772034
0.002223659525
0.002017963896
0.001674841759
0.001197880012
0.000592095749
-0.000136063821
-0.000978721434
-0.001926569812
-0.002968871685
-0.004093459806
-0.005286736945
-0.006533675882
-0.007817819387
-0.009121280202
-0.010424741016
-0.011707454446
-0.012947243005
-0.014120499085
-0.015202184932
-0.016165832628
-0.016983544069
-0.017625990948
-0.018062414742
-0.018260626696
-0.018187007812
-0.017806508836
-0.017082650249
-0.015977522264
-0.014451784814
-0.012464667546
-0.009973969823
-0.006936060716
-0.003305879004
0.000963066826
0.005918698580
0.011610368354
0.018088858532
0.025406381780
0.033616581044
0.042774529541
0.052936730753
0.064161118413
0.076507056502
0.090035339231
0.104808191027
0.120889266523
0.138343650532
0.157237858035
0.177639834160
0.199618954155
0.223246023368
0.248593277225
0.275734381201
0.304744430802
0.335699951541
0.368678898923
0.403760658435
0.441026045541
0.480557305699
0.522438114378
0.566753577103
0.613590229517
0.663036037452
0.715180397034
0.003017485142
0.002941132559
0.002704453744
0.002309604634
0.001760171491
0.001061170827
0.000219049332
-0.000758316175
-0.001861618795
-0.003080121565
-0.004401657480
-0.005812629498
-0.007298010530
-0.008841343437
-0.010424741016
-0.012028885982
-0.013633030947
-0.015214998408
-0.016751180725
-0.018216540100
-0.019584608565
-0.020827487962
-0.021915849929
-0.022818935887
-0.023504557027
-0.023939094299
-0.024087498403
-0.023913289778
-0.023378558600
-0.022443964769
-0.021068737912
-0.019210677373
-0.016826152211
-0.013870101203
-0.010296032838
-0.006056025321
-0.001100726575
0.004620645761
0.011160304322
0.018571892018
0.026910482023
0.036232577771
0.046596112946
0.058060451475
0.070686387511
0.084536145429
0.099673379803
0.116163175401
0.134072047159
0.153467940171
0.174420229667
0.196999720996
0.221278649608
0.247330681031
0.275230910861
0.305055864746
0.336883498377
0.370793197482
0.406865777835
0.445183485268
0.485829995700
0.528890415173
0.574451279911
0.622600556384
0.673427641392
0.003906250000
0.003818931825
0.003549113888
0.003098951541
0.002472030490
0.001673366734
0.000709406499
-0.000411973805
-0.001681467627
-0.003088338299
-0.004620419054
-0.006264113036
-0.008004393302
-0.009824802816
-0.011707454446
-0.013633030947
-0.015580784952
-0.017528538957
-0.019452685307
-0.021328186179
-0.023128573571
-0.024825949286
-0.026390984920
-0.027792921851
-0.028999571226
-0.029977313955
-0.030691100698
-0.031104451861
-0.031179457587
-0.030876777753
-0.030155641962
-0.028973849545
-0.027287769553
-0.025052340758
-0.022221071653
-0.018746040453
-0.014577895094
-0.009665853237
-0.003957702271
0.002600200682
0.010062928760
0.018486985361
0.027930304127
0.038452248939
0.050113613911
0.062976623372
0.077104931861
0.092563624109
0.109419215028
0.127739649697
0.147594303346
0.169053981343
0.192190919178
0.217078782452
0.243792666865
0.272409098207
0.303006032356
0.335662855281
0.370460383048
0.407480861839
0.446807967980
0.488526807978
0.532723918570
0.579487266783
0.628906250000
0.004978239536
0.004879230851
0.004574118443
0.004065057151
0.003355632195
0.002450859119
0.001357183735
0.000082482082
-0.001363939611
-0.002971344951
-0.004727567401
-0.006619010291
-0.008630646825
-0.010746020081
-0.012947243005
-0.015214998408
-0.017528538957
-0.019865687162
-0.022202835367
-0.024514945739
-0.026775550255
-0.028956750691
-0.031029218615
-0.032962195371
-0.034723492073
-0.036279489597
-0.037595138575
-0.038633959381
-0.039358042136
-0.039728046692
-0.039703202639
-0.039241309293
-0.038298735698
-0.036830420623
-0.034789872565
-0.032129169745
-0.028798960111
-0.024748461343
-0.019925460851
-0.014276315781
-0.007745953024
-0.000277869214
0.008185869259
0.017704626244
0.028339195821
0.040151802289
0.053206100160
0.067567174146
0.083301539147
0.100477140242
0.119163352677
0.139430981851
0.161352263310
0.185000862736
0.210451875940
0.237781828859
0.267068677560
0.298391808238
0.331832037237
0.367471611060
0.405394206404
0.445684930190
0.488430319609
0.533718342176
0.581638395786
0.006257057190
0.006145633601
0.005803071881
0.005231526424
0.004434582021
0.003417253812
0.002185987240
0.000748658009
-0.000885427947
-0.002705534492
-0.004699495307
-0.006853713902
-0.009153163628
-0.011581387677
-0.014120499085
-0.016751180725
-0.019452685307
-0.022202835367
-0.024978023261
-0.027753211155
-0.030501931018
-0.033196284610
-0.035806943479
-0.038303148944
-0.040652712097
-0.042822013788
-0.044776004622
-0.046478204954
-0.047890704882
-0.048974164243
-0.049687812610
-0.049989449291
-0.049835443322
-0.049180733472
-0.047978828239
-0.046181805850
-0.043740314264
-0.040603571174
-0.036719364008
-0.032034049933
-0.026492555861
-0.020038378452
-0.012613584120
-0.004158809042
0.005386740838
0.016085289802
0.028000492343
0.041197433166
0.055742627171
0.071704019448
0.089150985268
0.108154330074
0.128786289475
0.151120529241
0.175232145298
0.201197663731
0.229095040785
0.259003662876
0.291004346600
0.325179338760
0.361612316385
0.400388386767
0.441594087500
0.485317386527
0.531647682190
0.007767736912
0.007643174480
0.007261009057
0.006623394642
0.005733915651
0.004597586868
0.003220853403
0.001611590661
-0.000220895695
-0.002265869765
-0.004511165433
-0.006943186384
-0.009546906108
-0.012305867916
-0.015202184932
-0.018216540100
-0.021328186179
-0.024514945739
-0.027753211155
-0.031017944603
-0.034282678051
-0.037519513254
-0.040699121745
-0.043790744831
-0.046762193583
-0.049579848835
-0.052208661172
-0.054612150932
-0.056752408196
-0.058590092787
-0.060084434268
-0.061193231938
-0.061872854828
-0.062078241705
-0.061762901069
-0.060878911152
-0.059376919922
-0.057206145082
-0.054314374074
-0.050647964082
-0.046151842035
-0.040769504612
-0.034443018247
-0.027113019132
-0.018718713227
-0.009197876264
0.001513146246
0.013479439005
0.026767516924
0.041445325112
0.057582238874
0.075249063702
0.094518035276
0.115462819455
0.138158512281
0.162681639981
0.189110158974
0.217523455878
0.248002347529
0.280629080995
0.315487333609
0.352662212993
0.392240257098
0.434309434243
0.478959143162
0.009536743164
0.009398318352
0.008974395224
0.008267127437