# vtk DataFile Version 2.0
TITLE = "Quad data"
ASCII
DATASET STRUCTURED_GRID
DIMENSIONS 257 257 1
POINTS 66049 FLOAT
0.000000 0.000000 0.000000
0.000000 0.003906 0.000000
0.000000 0.007812 0.000000
0.000000 0.011719 0.000000
0.000000 0.015625 0.000000
0.000000 0.019531 0.000000
0.000000 0.023438 0.000000
0.000000 0.027344 0.000000
0.000000 0.031250 0.000000
0.000000 0.035156 0.000000
0.000000 0.039062 0.000000
0.000000 0.042969 0.000000
0.000000 0.046875 0.000000
0.000000 0.050781 0.000000
0.000000 0.054688 0.000000
0.000000 0.058594 0.000000
0.000000 0.062500 0.000000
0.000000 0.066406 0.000000
0.000000 0.070312 0.000000
0.000000 0.074219 0.000000
0.000000 0.078125 0.000000
0.000000 0.082031 0.000000
0.000000 0.085938 0.000000
0.000000 0.089844 0.000000
0.000000 0.093750 0.000000
0.000000 0.097656 0.000000
0.000000 0.101562 0.000000
0.000000 0.105469 0.000000
0.000000 0.109375 0.000000
0.000000 0.113281 0.000000
0.000000 0.117188 0.000000
0.000000 0.121094 0.000000
0.000000 0.125000 0.000000
0.000000 0.128906 0.000000
0.000000 0.132812 0.000000
0.000000 0.136719 0.000000
0.000000 0.140625 0.000000
0.000000 0.144531 0.000000
0.000000 0.148438 0.000000
0.000000 0.152344 0.000000
0.000000 0.156250 0.000000
0.000000 0.160156 0.000000
0.000000 0.164062 0.000000
0.000000 0.167969 0.000000
0.000000 0.171875 0.000000
0.000000 0.175781 0.000000
0.000000 0.179688 0.000000
0.000000 0.183594 0.000000
0.000000 0.187500 0.000000
0.000000 0.191406 0.000000
0.000000 0.195312 0.000000
0.000000 0.199219 0.000000
0.000000 0.203125 0.000000
0.000000 0.207031 0.000000
0.000000 0.210938 0.000000
0.000000 0.214844 0.000000
0.000000 0.218750 0.000000
0.000000 0.222656 0.000000
0.000000 0.226562 0.000000
0.000000 0.230469 0.000000
0.000000 0.234375 0.000000
0.000000 0.238281 0.000000
0.000000 0.242188 0.000000
0.000000 0.246094 0.000000
0.000000 0.250000 0.000000
0.000000 0.253906 0.000000
0.000000 0.257812 0.000000
0.000000 0.261719 0.000000
0.000000 0.265625 0.000000
0.000000 0.269531 0.000000
0.000000 0.273438 0.000000
0.000000 0.277344 0.000000
0.000000 0.281250 0.000000
0.000000 0.285156 0.000000
0.000000 0.289062 0.000000
0.000000 0.292969 0.000000
0.000000 0.296875 0.000000
0.000000 0.300781 0.000000
0.000000 0.304688 0.000000
0.000000 0.308594 0.000000
0.000000 0.312500 0.000000
0.000000 0.316406 0.000000
0.000000 0.320312 0.000000
0.000000 0.324219 0.000000
0.000000 0.328125 0.000000
0.000000 0.332031 0.000000
0.000000 0.335938 0.000000
0.000000 0.339844 0.000000
0.000000 0.343750 0.000000
0.000000 0.347656 0.000000
0.000000 0.351562 0.000000
0.000000 0.355469 0.000000
0.000000 0.359375 0.000000
0.000000 0.363281 0.000000
0.000000 0.367188 0.000000
0.000000 0.371094 0.000000
0.000000 0.375000 0.000000
0.000000 0.378906 0.000000
0.000000 0.382812 0.000000
0.000000 0.386719 0.000000
0.000000 0.390625 0.000000
0.000000 0.394531 0.000000
0.000000 0.398438 0.000000
0.000000 0.402344 0.000000
0.000000 0.406250 0.000000
0.000000 0.410156 0.000000
0.000000 0.414062 0.000000
0.000000 0.417969 0.000000
0.000000 0.421875 0.000000
0.000000 0.425781 0.000000
0.000000 0.429688 0.000000
0.000000 0.433594 0.000000
0.000000 0.437500 0.000000
0.000000 0.441406 0.000000
0.000000 0.445312 0.000000
0.000000 0.449219 0.000000
0.000000 0.453125 0.000000
0.000000 0.457031 0.000000
0.000000 0.460938 0.000000
0.000000 0.464844 0.000000
0.000000 0.468750 0.000000
0.000000 0.472656 0.000000
0.000000 0.476562 0.000000
0.000000 0.480469 0.000000
0.000000 0.484375 0.000000
0.000000 0.488281 0.000000
0.000000 0.492188 0.000000
0.000000 0.496094 0.000000
0.000000 0.500000 0.000000
0.000000 0.503906 0.000000
0.000000 0.507812 0.000000
0.000000 0.511719 0.000000
0.000000 0.515625 0.000000
0.000000 0.519531 0.000000
0.000000 0.523438 0.000000
0.000000 0.527344 0.000000
0.000000 0.531250 0.000000
0.000000 0.535156 0.000000
0.000000 0.539062 0.000000
0.000000 0.542969 0.000000
0.000000 0.546875 0.000000
0.000000 0.550781 0.000000
0.000000 0.554688 0.000000
0.000000 0.558594 0.000000
0.000000 0.562500 0.000000
0.000000 0.566406 0.000000
0.000000 0.570312 0.000000
0.000000 0.574219 0.000000
0.000000 0.578125 0.000000
0.000000 0.582031 0.000000
0.000000 0.585938 0.000000
0.000000 0.589844 0.000000
0.000000 0.593750 0.000000
0.000000 0.597656 0.000000
0.000000 0.601562 0.000000
0.000000 0.605469 0.000000
0.000000 0.609375 0.000000
0.000000 0.613281 0.000000
0.000000 0.617188 0.000000
0.000000 0.621094 0.000000
0.000000 0.625000 0.000000
0.000000 0.628906 0.000000
0.000000 0.632812 0.000000
0.000000 0.636719 0.000000
0.000000 0.640625 0.000000
0.000000 0.644531 0.000000
0.000000 0.648438 0.000000
0.000000 0.652344 0.000000
0.000000 0.656250 0.000000
0.000000 0.660156 0.000000
0.000000 0.664062 0.000000
0.000000 0.667969 0.000000
0.000000 0.671875 0.000000
0.000000 0.675781 0.000000
0.000000 0.679688 0.000000
0.000000 0.683594 0.000000
0.000000 0.687500 0.000000
0.000000 0.691406 0.000000
0.000000 0.695312 0.000000
0.000000 0.699219 0.000000
0.000000 0.703125 0.000000
0.000000 0.707031 0.000000
0.000000 0.710938 0.000000
0.000000 0.714844 0.000000
0.000000 0.718750 0.000000
0.000000 0.722656 0.000000
0.000000 0.726562 0.000000
0.000000 0.730469 0.000000
0.000000 0.734375 0.000000
0.000000 0.738281 0.000000
0.000000 0.742188 0.000000
0.000000 0.746094 0.000000
0.000000 0.750000 0.000000
0.000000 0.753906 0.000000
0.000000 0.757812 0.000000
0.000000 0.761719 0.000000
0.000000 0.765625 0.000000
0.000000 0.769531 0.000000
0.000000 0.773438 0.000000
0.000000 0.777344 0.000000
0.000000 0.781250 0.000000
0.000000 0.785156 0.000000
0.000000 0.789062 0.000000
0.000000 0.792969 0.000000
0.000000 0.796875 0.000000
0.000000 0.800781 0.000000
0.000000 0.804688 0.000000
0.000000 0.808594 0.000000
0.000000 0.812500 0.000000
0.000000 0.816406 0.000000
0.000000 0.820312 0.000000
0.000000 0.824219 0.000000
0.000000 0.828125 0.000000
0.000000 0.832031 0.000000
0.000000 0.835938 0.000000
0.000000 0.839844 0.000000
0.000000 0.843750 0.000000
0.000000 0.847656 0.000000
0.000000 0.851562 0.000000
0.000000 0.855469 0.000000
0.000000 0.859375 0.000000
0.000000 0.863281 0.000000
0.000000 0.867188 0.000000
0.000000 0.871094 0.000000
0.000000 0.875000 0.000000
0.000000 0.878906 0.000000
0.000000 0.882812 0.000000
0.000000 0.886719 0.000000
0.000000 0.890625 0.000000
0.000000 0.894531 0.000000
0.000000 0.898438 0.000000
0.000000 0.902344 0.000000
0.000000 0.906250 0.000000
0.000000 0.910156 0.000000
0.000000 0.914062 0.000000
0.000000 0.917969 0.000000
0.000000 0.921875 0.000000
0.000000 0.925781 0.000000
0.000000 0.929688 0.000000
0.000000 0.933594 0.000000
0.000000 0.937500 0.000000
0.000000 0.941406 0.000000
0.000000 0.945312 0.000000
0.000000 0.949219 0.000000
0.000000 0.953125 0.000000
0.000000 0.957031 0.000000
0.000000 0.960938 0.000000
0.000000 0.964844 0.000000
0.000000 0.968750 0.000000
0.000000 0.972656 0.000000
0.000000 0.976562 0.000000
0.000000 0.980469 0.000000
0.000000 0.984375 0.000000
0.000000 0.988281 0.000000
0.000000 0.992188 0.000000
0.000000 0.996094 0.000000
0.000000 1.000000 0.000000
0.003906 0.000000 0.000000
0.003906 0.003906 0.000000
0.003906 0.007812 0.000000
0.003906 0.011719 0.000000
0.003906 0.015625 0.000000
0.003906 0.019531 0.000000
0.003906 0.023438 0.000000
0.003906 0.027344 0.000000
0.003906 0.031250 0.000000
0.003906 0.035156 0.000000
0.003906 0.039062 0.000000
0.003906 0.042969 0.000000
0.003906 0.046875 0.000000
0.003906 0.050781 0.000000
0.003906 0.054688 0.000000
0.003906 0.058594 0.000000
0.003906 0.062500 0.000000
0.003906 0.066406 0.000000
0.003906 0.070312 0.000000
0.003906 0.074219 0.000000
0.003906 0.078125 0.000000
0.003906 0.082031 0.000000
0.003906 0.085938 0.000000
0.003906 0.089844 0.000000
0.003906 0.093750 0.000000
0.003906 0.097656 0.000000
0.003906 0.101562 0.000000
0.003906 0.105469 0.000000
0.003906 0.109375 0.000000
0.003906 0.113281 0.000000
0.003906 0.117188 0.000000
0.003906 0.121094 0.000000
0.003906 0.125000 0.000000
0.003906 0.128906 0.000000
0.003906 0.132812 0.000000
0.003906 0.136719 0.000000
0.003906 0.140625 0.000000
0.003906 0.144531 0.000000
0.003906 0.148438 0.000000
0.003906 0.152344 0.000000
0.003906 0.156250 0.000000
0.003906 0.160156 0.000000
0.003906 0.164062 0.000000
0.003906 0.167969 0.000000
0.003906 0.171875 0.000000
0.003906 0.175781 0.000000
0.003906 0.179688 0.000000
0.003906 0.183594 0.000000
0.003906 0.187500 0.000000
0.003906 0.191406 0.000000
0.003906 0.195312 0.000000
0.003906 0.199219 0.000000
0.003906 0.203125 0.000000
0.003906 0.207031 0.000000
0.003906 0.210938 0.000000
0.003906 0.214844 0.000000
0.003906 0.218750 0.000000
0.003906 0.222656 0.000000
0.003906 0.226562 0.000000
0.003906 0.230469 0.000000
0.003906 0.234375 0.000000
0.003906 0.238281 0.000000
0.003906 0.242188 0.000000
0.003906 0.246094 0.000000
0.003906 0.250000 0.000000
0.003906 0.253906 0.000000
0.003906 0.257812 0.000000
0.003906 0.261719 0.000000
0.003906 0.265625 0.000000
0.003906 0.269531 0.000000
0.003906 0.273438 0.000000
0.003906 0.277344 0.000000
0.003906 0.281250 0.000000
0.003906 0.285156 0.000000
0.003906 0.289062 0.000000
0.003906 0.292969 0.000000
0.003906 0.296875 0.000000
0.003906 0.300781 0.000000
0.003906 0.304688 0.000000
0.003906 0.308594 0.000000
0.003906 0.312500 0.000000
0.003906 0.316406 0.000000
0.003906 0.320312 0.000000
0.003906 0.324219 0.000000
0.003906 0.328125 0.000000
0.003906 0.332031 0.000000
0.003906 0.335938 0.000000
0.003906 0.339844 0.000000
0.003906 0.343750 0.000000
0.003906 0.347656 0.000000
0.003906 0.351562 0.000000
0.003906 0.355469 0.000000
0.003906 0.359375 0.000000
0.003906 0.363281 0.000000
0.003906 0.367188 0.000000
0.003906 0.371094 0.000000
0.003906 0.375000 0.000000
0.003906 0.378906 0.000000
0.003906 0.382812 0.000000
0.003906 0.386719 0.000000
0.003906 0.390625 0.000000
0.003906 0.394531 0.000000
0.003906 0.398438 0.000000
0.003906 0.402344 0.000000
0.003906 0.406250 0.000000
0.003906 0.410156 0.000000
0.003906 0.414062 0.000000
0.003906 0.417969 0.000000
0.003906 0.421875 0.000000
[...]
POINT_DATA 66049
SCALARS phi FLOAT 1
LOOKUP_TABLE default
0.000000000000
0.000301367271
0.000603323725
0.000905870515
0.001209008793
0.001512739717
0.001817064445
0.002121984139
0.002427499960
0.002733613075
0.003040324652
0.003347635860
0.003655547871
0.003964061861
0.004273179007
0.004582900486
0.004893227482
0.005204161177
0.005515702758
0.005827853414
0.006140614334
0.006453986712
0.006767971744
0.007082570628
0.007397784562
0.007713614751
0.008030062398
0.008347128711
0.008664814899
0.008983122174
0.009302051751
0.009621604846
0.009941782678
0.010262586468
0.010584017441
0.010906076821
0.011228765839
0.011552085725
0.011876037711
0.012200623035
0.012525842934
0.012851698649
0.013178191423
0.013505322501
0.013833093131
0.014161504564
0.014490558052
0.014820254851
0.015150596219
0.015481583414
0.015813217701
0.016145500344
0.016478432611
0.016812015771
0.017146251098
0.017481139866
0.017816683353
0.018152882838
0.018489739605
0.018827254938
0.019165430125
0.019504266456
0.019843765224
0.020183927722
0.020524755250
0.020866249107
0.021208410596
0.021551241023
0.021894741694
0.022238913921
0.022583759016
0.022929278294
0.023275473075
0.023622344678
0.023969894426
0.024318123646
0.024667033666
0.025016625816
0.025366901431
0.025717861847
0.026069508402
0.026421842438
0.026774865298
0.027128578330
0.027482982884
0.027838080309
0.028193871963
0.028550359201
0.028907543383
0.029265425873
0.029624008034
0.029983291236
0.030343276849
0.030703966246
0.031065360802
0.031427461897
0.031790270912
0.032153789231
0.032518018240
0.032882959329
0.033248613890
0.033614983319
0.033982069011
0.034349872369
0.034718394794
0.035087637694
0.035457602475
0.035828290550
0.036199703333
0.036571842240
0.036944708691
0.037318304109
0.037692629918
0.038067687547
0.038443478426
0.038820003989
0.039197265672
0.039575264914
0.039954003158
0.040333481847
0.040713702430
0.041094666357
0.041476375081
0.041858830059
0.042242032749
0.042625984613
0.043010687116
0.043396141725
0.043782349911
0.044169313147
0.044557032909
0.044945510677
0.045334747931
0.045724746157
0.046115506843
0.046507031479
0.046899321559
0.047292378579
0.047686204039
0.048080799441
0.048476166290
0.048872306095
0.049269220366
0.049666910618
0.050065378368
0.050464625135
0.050864652444
0.051265461819
0.051667054790
0.052069432889
0.052472597651
0.052876550613
0.053281293317
0.053686827306
0.054093154128
0.054500275333
0.054908192473
0.055316907105
0.055726420787
0.056136735083
0.056547851557
0.056959771777
0.057372497316
0.057786029746
0.058200370647
0.058615521598
0.059031484182
0.059448259988
0.059865850604
0.060284257625
0.060703482644
0.061123527263
0.061544393083
0.061966081710
0.062388594753
0.062811933822
0.063236100534
0.063661096506
0.064086923359
0.064513582718
0.064941076211
0.065369405467
0.065798572122
0.066228577812
0.066659424177
0.067091112862
0.067523645512
0.067957023779
0.068391249314
0.068826323775
0.069262248821
0.069699026115
0.070136657324
0.070575144116
0.071014488165
0.071454691146
0.071895754738
0.072337680625
0.072780470492
0.073224126027
0.073668648925
0.074114040879
0.074560303590
0.075007438759
0.075455448093
0.075904333299
0.076354096092
0.076804738186
0.077256261300
0.077708667157
0.078161957483
0.078616134006
0.079071198460
0.079527152581
0.079983998106
0.080441736781
0.080900370349
0.081359900562
0.081820329172
0.082281657935
0.082743888611
0.083207022964
0.083671062760
0.084136009770
0.084601865766
0.085068632527
0.085536311832
0.086004905466
0.086474415216
0.086944842874
0.087416190234
0.087888459093
0.088361651254
0.088835768522
0.089310812704
0.089786785614
0.090263689067
0.090741524883
0.091220294883
0.091700000895
0.092180644748
0.092662228276
0.093144753316
0.093628221709
0.094112635299
0.094597995933
0.095084305464
0.095571565747
0.096059778639
0.096548946004
0.097039069708
0.097530151620
0.098022193614
0.098515197566
0.099009165358
0.099504098873
0.100000000000
0.000575531208
0.000702234582
0.000918400008
0.001170260704
0.001439193399
0.001717716404
0.002002358933
0.002291296513
0.002583468633
0.002878208883
0.003175072601
0.003473748890
0.003774012171
0.004075693797
0.004378664541
0.004682823330
0.004988089728
0.005294398768
0.005601697299
0.005909941359
0.006219094231
0.006529124986
0.006840007379
0.007151718994
0.007464240570
0.007777555476
0.008091649286
0.008406509439
0.008722124956
0.009038486220
0.009355584779
0.009673413195
0.009991964908
0.010311234128
0.010631215738
0.010951905219
0.011273298574
0.011595392276
0.011918183213
0.012241668644
0.012565846162
0.012890713661
0.013216269303
0.013542511495
0.013869438867
0.014197050248
0.014525344651
0.014854321257
0.015183979399
0.015514318550
0.015845338314
0.016177038411
0.016509418671
0.016842479028
0.017176219504
0.017510640214
0.017845741349
0.018181523177
0.018517986037
0.018855130331
0.019192956523
0.019531465137
0.019870656748
0.020210531981
0.020551091512
0.020892336059
0.021234266385
0.021576883291
0.021920187619
0.022264180244
0.022608862079
0.022954234068
0.023300297187
0.023647052442
0.023994500870
0.024342643531
0.024691481518
0.025041015945
0.025391247952
0.025742178705
0.026093809391
0.026446141222
0.026799175430
0.027152913271
0.027507356018
0.027862504970
0.028218361442
0.028574926771
0.028932202312
0.029290189441
0.029648889553
0.030008304060
0.030368434396
0.030729282009
0.031090848371
0.031453134968
0.031816143307
0.032179874912
0.032544331327
0.032909514113
0.033275424852
0.033642065142
0.034009436602
0.034377540870
0.034746379602
0.035115954475
0.035486267185
0.035857319450
0.036229113006
0.036601649611
0.036974931045
0.037348959108
0.037723735625
0.038099262439
0.038475541422
0.038852574464
0.039230363483
0.039608910421
0.039988217244
0.040368285947
0.040749118548
0.041130717097
0.041513083670
0.041896220373
0.042280129341
0.042664812742
0.043050272776
0.043436511675
0.043823531707
0.044211335173
0.044599924413
0.044989301805
0.045379469764
0.045770430748
0.046162187256
0.046554741832
0.046948097063
0.047342255586
0.047737220084
0.048132993292
0.048529577999
0.048926977047
0.049325193336
0.049724229824
0.050124089532
0.050524775544
0.050926291013
0.051328639160
0.051731823279
0.052135846740
0.052540712992
0.052946425565
0.053352988079
0.053760404241
0.054168677852
0.054577812813
0.054987813126
0.055398682902
0.055810426365
0.056223047856
0.056636551838
0.057050942907
0.057466225793
0.057882405367
0.058299486652
0.058717474826
0.059136375233
0.059556193390
0.059976934995
0.060398605939
0.060821212315
0.061244760426
0.061669256800
0.062094708202
0.062521121643
0.062948504397
0.063376864017
0.063806208346
0.064236545537
0.064667884070
0.065100232772
0.065533600834
0.065967997838
0.066403433776
0.066839919077
0.067277464634
0.067716081832
0.068155782581
0.068596579348
0.069038485193
0.069481513809
0.069925679564
0.070370997547
0.070817483615
0.071265154450
0.071714027615
0.072164121614
0.072615455969
0.073068051284
0.073521929335
0.073977113154
0.074433627127
0.074891497102
0.075350750504
0.075811416462
0.076273525953
0.076737111955
0.077202209621
0.077668856465
0.078137092576
0.078606960850
0.079078507251
0.079551781103
0.080026835408
0.080503727219
0.080982518043
0.081463274303
0.081946067859
0.082430976601
0.082918085115
0.083407485450
0.083899277995
0.084393572485
0.084890489159
0.085390160103
0.085892730811
0.086398362012
0.086907231804
0.087419538183
0.087935502040
0.088455370733
0.088979422384
0.089507971074
0.090041373169
0.090580035096
0.091124422975
0.091675074669
0.092232615012
0.092797775283
0.093371418422
0.093954572144
0.094548473102
0.095154626860
0.095774890933
0.096411592453
0.097067699282
0.097747076556
0.098454885308
0.099198228780
0.099987255419
0.100837162206
0.101772119711
0.102833696570
0.104100965385
0.105744417769
0.108188698649
0.107692313086
0.000901466665
0.001028170038
0.001210088960
0.001428291006
0.001669312628
0.001925178985
0.002191226355
0.002464634223
0.002743616481
0.003026988956
0.003313933483
0.003603864292
0.003896349113
0.004191060664
0.004487745683
0.004786204486
0.005086277075
0.005387833440
0.005690766642
0.005994987763
0.006300422161
0.006607006651
0.006914687334
0.007223417925
0.007533158437
0.007843874129
0.008155534676
0.008468113483
0.008781587139
0.009095934957
0.009411138598
0.009727181760
0.010044049910
0.010361730062
0.010680210593
0.010999481076
0.011319532146
0.011640355379
0.011961943189
0.012284288743
0.012607385877
0.012931229035
0.013255813203
0.013581133861
0.013907186935
0.014233968758
0.014561476029
0.014889705787
0.015218655378
0.015548322428
0.015878704825
0.016209800695
0.016541608382
0.016874126434
0.017207353587
0.017541288748
0.017875930991
0.018211279533
0.018547333738
0.018884093094
0.019221557215
0.019559725828
0.019898598767
0.020238175965
0.020578457452
0.020919443345
0.021261133846
0.021603529237
0.021946629874
0.022290436185
0.022634948666
0.022980167877
0.023326094441
0.023672729038
0.024020072405
0.024368125332
0.024716888664
0.025066363292
0.025416550157
0.025767450247
0.026119064593
0.026471394272
0.026824440401
0.027178204139
0.027532686687
0.027887889282
0.028243813203
0.028600459764
0.028957830317
0.029315926252
0.029674748993
0.030034300001
0.030394580773
0.030755592839
0.031117337766
0.031479817155
0.031843032643
0.032206985901
0.032571678634
0.032937112584
0.033303289526
0.033670211274
0.034037879675
0.034406296613
0.034775464008
0.035145383819
0.035516058040
0.035887488707
0.036259677892
0.036632627706
0.037006340305
0.037380817880
0.037756062670
0.038132076954
0.038508863056
0.038886423346
0.039264760238
0.039643876197
0.040023773735
0.040404455416
0.040785923855
0.041168181719
0.041551231734
0.041935076679
0.042319719394
0.042705162779
0.043091409797
0.043478463474
0.043866326906
0.044255003255
0.044644495757
0.045034807722
0.045425942537
0.045817903669
0.046210694668
0.046604319168
0.046998780897
0.047394083671
0.047790231406
0.048187228116
0.048585077922
0.048983785050
0.049383353842
0.049783788757
0.050185094376
0.050587275409
0.050990336698
0.051394283225
0.051799120115
0.052204852648
0.052611486258
0.053019026548
0.053427479289
0.053836850437
0.054247146132
0.054658372716
0.055070536733
0.055483644945
0.055897704341
0.056312722146
0.056728705834
0.057145663139
0.057563602070
0.057982530921
0.058402458288
0.058823393084
0.059245344554
0.059668322293
0.060092336262
0.060517396812
0.060943514698
0.061370701107
0.061798967677
0.062228326522
0.062658790259
0.063090372038
0.063523085568
0.063956945149
0.064391965710
0.064828162840
0.065265552831
0.065704152717
0.066143980319
0.066585054293
0.067027394179
0.067471020461
0.067915954619
0.068362219199
0.068809837875
0.069258835527
0.069709238321
0.070161073790
0.070614370930
0.071069160301
0.071525474132
0.071983346444
0.072442813171
0.072903912307
0.073366684051
0.073831170976
0.074297418207
0.074765473621
0.075235388059
0.075707215565
0.076181013647
0.076656843559
0.077134770621
0.077614864564
0.078097199916
0.078581856426
0.079068919542
0.079558480936
0.080050639091
0.080545499961
0.081043177703
0.081543795510
0.082047486538
0.082554394961
0.083064677166
0.083578503102
0.084096057828
0.084617543282
0.085143180302
0.085673210968
0.086207901307
0.086747544423
0.087292464174
0.087843019459
0.088399609288
0.088962678782
0.089532726322
0.090110312134
0.090696068639
0.091290713055
0.091895062835
0.092510054745
0.093136768676
0.093776457630
0.094430585923
0.095100878441
0.095789384976
0.096498565518
0.097231405180
0.097991571898
0.098783637314
0.099613393349
0.100488317962
0.101418280948
0.102416649847
0.103502088775
0.104701605929
0.106055937440
0.107629423035
0.109528495612
0.111935297122
0.115157746789
0.114661361226
0.001184379529
0.001311082902
0.001476791617
0.001673784643
0.001893954413
0.002131043022
0.002380648557
0.002639742573
0.002906227164
0.003178621359
0.003455855479
0.003737138779
0.004021873804
0.004309600081
0.004599956343
0.004892654628
0.005187462164
0.005484188426
0.005782675725
0.006082792248
0.006384426828
0.006687484958
0.006991885716
0.007297559356
0.007604445412
0.007912491180
0.008221650498
0.008531882755
0.008843152077
0.009155426659
0.009468678205
0.009782881467
0.010098013852
0.010414055090
0.010730986956
0.011048793024
0.011367458469
0.011686969883
0.012007315121
0.012328483172
0.012650464040
0.012973248639
0.013296828711
0.013621196738
0.013946345879
0.014272269906
0.014598963150
0.014926420449
0.015254637110
0.015583608864
0.015913331838
0.016243802515
0.016575017714
0.016906974560
0.017239670461
0.017573103088
0.017907270357
0.018242170411
0.018577801603
0.018914162485
0.019251251792
0.019589068431
0.019927611471
0.020266880134
0.020606873782
0.020947591913
0.021289034153
0.021631200243
0.021974090044
0.022317703518
0.022662040734
0.023007101855
0.023352887138
0.023699396929
0.024046631655
0.024394591828
0.024743278036
0.025092690942
0.025442831280
0.025793699854
0.026145297535
0.026497625262
0.026850684032
0.027204474908
0.027558999011
0.027914257520
0.028270251674
0.028626982765
0.028984452143
0.029342661211
0.029701611427
0.030061304300
0.030421741394
0.030782924325
0.031144854761
0.031507534419
0.031870965073
0.032235148545
0.032600086710
0.032965781496
0.033332234883
0.033699448903
0.034067425642
0.034436167241
0.034805675893
0.035175953850
0.035547003416
0.035918826955
0.036291426889
0.036664805698
0.037038965922
0.037413910164
0.037789641089
0.038166161428
0.038543473977
0.038921581600
0.039300487230
0.039680193872
0.040060704605
0.040442022583
0.040824151039
0.041207093284
0.041590852714
0.041975432810
0.042360837139
0.042747069362
0.043134133233
0.043522032604
0.043910771427
0.044300353757
0.044690783762
0.045082065716
0.045474204014
0.045867203169
0.046261067821
0.046655802738
0.047051412825
0.047447903125
0.047845278830
0.048243545281
0.048642707978
0.049042772586
0.049443744939
0.049845631053
0.050248437126
0.050652169551
0.051056834924
0.051462440050
0.051868991956
0.052276497896
0.052684965367
0.053094402112
0.053504816140
0.053916215733
0.054328609457
0.054742006179
0.055156415080
0.055571845669
0.055988307799
0.056405811684
0.056824367913
0.057243987475
0.057664681774
0.058086462647
0.058509342395
0.058933333795
0.059358450133
0.059784705226
0.060212113452
0.060640689775
0.061070449782
0.061501409712
0.061933586491
0.062366997774
0.062801661979
0.063237598333
0.063674826917
0.064113368714
0.064553245661
0.064994480702
0.065437097851
0.065881122251
0.066326580247
0.066773499450
0.067221908825
0.067671838766
0.068123321190
0.068576389634
0.069031079354
0.069487427444
0.069945472951
0.070405257009
0.070866822976
0.071330216590
0.071795486134
0.072262682613
0.072731859948
0.073203075192
0.073676388753
0.074151864654
0.074629570796
0.075109579267
0.075591966663
0.076076814450
0.076564209358
0.077054243814
0.077547016421
0.078042632481
0.078541204584
0.079042853252
0.079547707651
0.080055906396
0.080567598433
0.081082944038
0.081602115925
0.082125300495
0.082652699246
0.083184530353
0.083721030470
0.084262456764
0.084809089241
0.085361233398
0.085919223262
0.086483424899
0.087054240455
0.087632112849
0.088217531249
0.088811037470
0.089413233508
0.090024790450
0.090646459070
0.091279082502
0.091923611504
0.092581122959
0.093252842474
0.093940172200
0.094644725373
0.095368369607
0.096113281701
0.096882017788
0.097677604199
0.098503656717
0.099364539308
0.100265578765
0.101213359886
0.102216139027
0.103284435114
0.104431892226
0.105676565874
0.107042880486
0.108564656918
0.110289821646
0.112287600242
0.114658707767
0.117546535748
0.121137339851
0.120640954288
0.001439072728
0.001565776101
0.001722573629
0.001905835972
0.002110745639
0.002332827302
0.002568446639
0.002814813039
0.003069825766
0.003331905995
0.003599858190
0.003872766285
0.004149918819
0.004430755590
0.004714829599
0.005001779707
0.005291310762
0.005583178981
0.005877181064
0.006173145975
0.006470928668
0.006770405238
0.007071469136
0.007374028180
0.007678002173
0.007983320990
0.008289923028
0.008597753937
0.008906765577
0.009216915155
0.009528164506
0.009840479482
0.010153829453
0.010468186863
0.010783526871
0.011099827032
0.011417067022
0.011735228410
0.012054294452
0.012374249914
0.012695080917
0.013016774803
0.013339320017
0.013662706000
0.013986923097
0.014311962475
0.014637816049
0.014964476419
0.015291936810
0.015620191021
0.015949233376
0.016279058685
0.016609662205
0.016941039603
0.017273186932
0.017606100594
0.017939777323
0.018274214157
0.018609408417
0.018945357691
0.019282059815
0.019619512855
0.019957715095
0.020296665024
0.020636361321
0.020976802849
0.021317988638
0.021659917881
0.022002589922
0.022346004250
0.022690160493
0.023035058406
0.023380697871
0.023727078888
0.024074201570
0.024422066140
0.024770672922
0.025120022345
0.025470114931
0.025820951297
0.026172532148
0.026524858280
0.026877930570
0.027231749981
0.027586317552
0.027941634406
0.028297701737
0.028654520820
0.029012093001
0.029370419698
0.029729502404
0.030089342681
0.030449942163
0.030811302553
0.031173425624
0.031536313219
0.031899967249
0.032264389696
0.032629582612
0.032995548116
0.033362288400
0.033729805725
0.034098102426
0.034467180908
0.034837043649
0.035207693203
0.035579132197
0.035951363337
0.036324389403
0.036698213260
0.037072837848
0.037448266194
0.037824501409
0.038201546688
0.038579405318
0.038958080674
0.039337576228
0.039717895546
0.040099042292
0.040481020233
0.040863833240
0.041247485294
0.041631980484
0.042017323017
0.042403517217
0.042790567530
0.043178478532
0.043567254926
0.043956901554
0.044347423398
0.044738825585
0.045131113395
0.045524292261
0.045918367784
0.046313345729
0.046709232038
0.047106032838
0.047503754441
0.047902403360
0.048301986309
0.048702510218
0.049103982239
0.049506409754
0.049909800386
0.050314162010
0.050719502761
0.051125831050
0.051533155569
0.051941485310
0.052350829576
0.052761197991
0.053172600521
0.053585047484
0.053998549569
0.054413117853
0.054828763818
0.055245499368
0.055663336855
0.056082289094
0.056502369388
0.056923591552
0.057345969936
0.057769519455
0.058194255612
0.058620194532
0.059047352991
0.059475748450
0.059905399090
0.060336323849
0.060768542463
0.061202075506
0.061636944438
0.062073171650
0.062510780514
0.062949795440
0.063390241931
0.063832146647
0.064275537467
0.064720443561
0.065166895464
0.065614925157
0.066064566151
0.066515853577
0.066968824288
0.067423516962
0.067879972212
0.068338232711
0.068798343323
0.069260351238
0.069724306129
0.070190260310
0.070658268917
0.071128390091
0.071600685193
0.072075219018
0.072552060040
0.073031280675
0.073512957564
0.073997171885
0.074484009687
0.074973562263
0.075465926548
0.075961205564
0.076459508899
0.076960953238
0.077465662946
0.077973770709
0.078485418241
0.079000757068
0.079519949387
0.080043169035
0.080570602550
0.081102450363
0.081638928124
0.082180268187
0.082726721279
0.083278558373
0.083836072797
0.084399582630
0.084969433408
0.085546001206
0.086129696156
0.086720966476
0.087320303095
0.087928244991
0.088545385377
0.089172378882
0.089809949953
0.090458902702
0.091120132530
0.091794639900
0.092483546759
0.093188116245
0.093909776462
0.094650149384
0.095411086240
0.096194711171
0.097003475555
0.097840226195
0.098708291759
0.099611593458
0.100554788341
0.101543456960
0.102584352195
0.103685733344
0.104857820514
0.106113420341
0.107468797180
0.108944895529
0.110569057510
0.112377408471
0.114418050185
0.116754947918
0.119471535134
0.122670802890
0.126464116371
0.125967730808
0.001673501798
0.001800205171
0.001951494457
0.002125440454
0.002319085186
0.002529299324
0.002753245634
0.002988539239
0.003233248984
0.003485836571
0.003745082141
0.004010016156
0.004279863369
0.004553998946
0.004831914836
0.005113194224
0.005397492115
0.005684520548
0.005974037245
0.006265836843
0.006559744057
0.006855608315
0.007153299499
0.007452704552
0.007753724733
0.008056273405
0.008360274214
0.008665659601
0.008972369567
0.009280350637
0.009589555004
0.009899939800
0.010211466480
0.010524100297
0.010837809856
0.011152566731
0.011468345127
0.011785121602
0.012102874808
0.012421585282
0.012741235251
0.013061808463
0.013383290045
0.013705666371