# vtk DataFile Version 2.0
TITLE = "Quad data"
ASCII
DATASET STRUCTURED_GRID
DIMENSIONS 65 65 1
POINTS 4225 FLOAT
0.000000 0.000000 0.000000
0.000000 0.015625 0.000000
0.000000 0.031250 0.000000
0.000000 0.046875 0.000000
0.000000 0.062500 0.000000
0.000000 0.078125 0.000000
0.000000 0.093750 0.000000
0.000000 0.109375 0.000000
0.000000 0.125000 0.000000
0.000000 0.140625 0.000000
0.000000 0.156250 0.000000
0.000000 0.171875 0.000000
0.000000 0.187500 0.000000
0.000000 0.203125 0.000000
0.000000 0.218750 0.000000
0.000000 0.234375 0.000000
0.000000 0.250000 0.000000
0.000000 0.265625 0.000000
0.000000 0.281250 0.000000
0.000000 0.296875 0.000000
0.000000 0.312500 0.000000
0.000000 0.328125 0.000000
0.000000 0.343750 0.000000
0.000000 0.359375 0.000000
0.000000 0.375000 0.000000
0.000000 0.390625 0.000000
0.000000 0.406250 0.000000
0.000000 0.421875 0.000000
0.000000 0.437500 0.000000
0.000000 0.453125 0.000000
0.000000 0.468750 0.000000
0.000000 0.484375 0.000000
0.000000 0.500000 0.000000
0.000000 0.515625 0.000000
0.000000 0.531250 0.000000
0.000000 0.546875 0.000000
0.000000 0.562500 0.000000
0.000000 0.578125 0.000000
0.000000 0.593750 0.000000
0.000000 0.609375 0.000000
0.000000 0.625000 0.000000
0.000000 0.640625 0.000000
0.000000 0.656250 0.000000
0.000000 0.671875 0.000000
0.000000 0.687500 0.000000
0.000000 0.703125 0.000000
0.000000 0.718750 0.000000
0.000000 0.734375 0.000000
0.000000 0.750000 0.000000
0.000000 0.765625 0.000000
0.000000 0.781250 0.000000
0.000000 0.796875 0.000000
0.000000 0.812500 0.000000
0.000000 0.828125 0.000000
0.000000 0.843750 0.000000
0.000000 0.859375 0.000000
0.000000 0.875000 0.000000
0.000000 0.890625 0.000000
0.000000 0.906250 0.000000
0.000000 0.921875 0.000000
0.000000 0.937500 0.000000
0.000000 0.953125 0.000000
0.000000 0.968750 0.000000
0.000000 0.984375 0.000000
0.000000 1.000000 0.000000
0.015625 0.000000 0.000000
0.015625 0.015625 0.000000
0.015625 0.031250 0.000000
0.015625 0.046875 0.000000
0.015625 0.062500 0.000000
0.015625 0.078125 0.000000
0.015625 0.093750 0.000000
0.015625 0.109375 0.000000
0.015625 0.125000 0.000000
0.015625 0.140625 0.000000
0.015625 0.156250 0.000000
0.015625 0.171875 0.000000
0.015625 0.187500 0.000000
0.015625 0.203125 0.000000
0.015625 0.218750 0.000000
0.015625 0.234375 0.000000
0.015625 0.250000 0.000000
0.015625 0.265625 0.000000
0.015625 0.281250 0.000000
0.015625 0.296875 0.000000
0.015625 0.312500 0.000000
0.015625 0.328125 0.000000
0.015625 0.343750 0.000000
0.015625 0.359375 0.000000
0.015625 0.375000 0.000000
0.015625 0.390625 0.000000
0.015625 0.406250 0.000000
0.015625 0.421875 0.000000
0.015625 0.437500 0.000000
0.015625 0.453125 0.000000
0.015625 0.468750 0.000000
0.015625 0.484375 0.000000
0.015625 0.500000 0.000000
0.015625 0.515625 0.000000
0.015625 0.531250 0.000000
0.015625 0.546875 0.000000
0.015625 0.562500 0.000000
0.015625 0.578125 0.000000
0.015625 0.593750 0.000000
0.015625 0.609375 0.000000
0.015625 0.625000 0.000000
0.015625 0.640625 0.000000
0.015625 0.656250 0.000000
0.015625 0.671875 0.000000
0.015625 0.687500 0.000000
0.015625 0.703125 0.000000
0.015625 0.718750 0.000000
0.015625 0.734375 0.000000
0.015625 0.750000 0.000000
0.015625 0.765625 0.000000
0.015625 0.781250 0.000000
0.015625 0.796875 0.000000
0.015625 0.812500 0.000000
0.015625 0.828125 0.000000
0.015625 0.843750 0.000000
0.015625 0.859375 0.000000
0.015625 0.875000 0.000000
0.015625 0.890625 0.000000
0.015625 0.906250 0.000000
0.015625 0.921875 0.000000
0.015625 0.937500 0.000000
0.015625 0.953125 0.000000
0.015625 0.968750 0.000000
0.015625 0.984375 0.000000
0.015625 1.000000 0.000000
0.031250 0.000000 0.000000
0.031250 0.015625 0.000000
0.031250 0.031250 0.000000
0.031250 0.046875 0.000000
0.031250 0.062500 0.000000
0.031250 0.078125 0.000000
0.031250 0.093750 0.000000
0.031250 0.109375 0.000000
0.031250 0.125000 0.000000
0.031250 0.140625 0.000000
0.031250 0.156250 0.000000
0.031250 0.171875 0.000000
0.031250 0.187500 0.000000
0.031250 0.203125 0.000000
0.031250 0.218750 0.000000
0.031250 0.234375 0.000000
0.031250 0.250000 0.000000
0.031250 0.265625 0.000000
0.031250 0.281250 0.000000
0.031250 0.296875 0.000000
0.031250 0.312500 0.000000
0.031250 0.328125 0.000000
0.031250 0.343750 0.000000
0.031250 0.359375 0.000000
0.031250 0.375000 0.000000
0.031250 0.390625 0.000000
0.031250 0.406250 0.000000
0.031250 0.421875 0.000000
0.031250 0.437500 0.000000
0.031250 0.453125 0.000000
0.031250 0.468750 0.000000
0.031250 0.484375 0.000000
0.031250 0.500000 0.000000
0.031250 0.515625 0.000000
0.031250 0.531250 0.000000
0.031250 0.546875 0.000000
0.031250 0.562500 0.000000
0.031250 0.578125 0.000000
0.031250 0.593750 0.000000
0.031250 0.609375 0.000000
0.031250 0.625000 0.000000
0.031250 0.640625 0.000000
0.031250 0.656250 0.000000
0.031250 0.671875 0.000000
0.031250 0.687500 0.000000
0.031250 0.703125 0.000000
0.031250 0.718750 0.000000
0.031250 0.734375 0.000000
0.031250 0.750000 0.000000
0.031250 0.765625 0.000000
0.031250 0.781250 0.000000
0.031250 0.796875 0.000000
0.031250 0.812500 0.000000
0.031250 0.828125 0.000000
0.031250 0.843750 0.000000
0.031250 0.859375 0.000000
0.031250 0.875000 0.000000
0.031250 0.890625 0.000000
0.031250 0.906250 0.000000
0.031250 0.921875 0.000000
0.031250 0.937500 0.000000
0.031250 0.953125 0.000000
0.031250 0.968750 0.000000
0.031250 0.984375 0.000000
0.031250 1.000000 0.000000
0.046875 0.000000 0.000000
0.046875 0.015625 0.000000
0.046875 0.031250 0.000000
0.046875 0.046875 0.000000
0.046875 0.062500 0.000000
0.046875 0.078125 0.000000
0.046875 0.093750 0.000000
0.046875 0.109375 0.000000
0.046875 0.125000 0.000000
0.046875 0.140625 0.000000
0.046875 0.156250 0.000000
0.046875 0.171875 0.000000
0.046875 0.187500 0.000000
0.046875 0.203125 0.000000
0.046875 0.218750 0.000000
0.046875 0.234375 0.000000
0.046875 0.250000 0.000000
0.046875 0.265625 0.000000
0.046875 0.281250 0.000000
0.046875 0.296875 0.000000
0.046875 0.312500 0.000000
0.046875 0.328125 0.000000
0.046875 0.343750 0.000000
0.046875 0.359375 0.000000
0.046875 0.375000 0.000000
0.046875 0.390625 0.000000
0.046875 0.406250 0.000000
0.046875 0.421875 0.000000
0.046875 0.437500 0.000000
0.046875 0.453125 0.000000
0.046875 0.468750 0.000000
0.046875 0.484375 0.000000
0.046875 0.500000 0.000000
0.046875 0.515625 0.000000
0.046875 0.531250 0.000000
0.046875 0.546875 0.000000
0.046875 0.562500 0.000000
0.046875 0.578125 0.000000
0.046875 0.593750 0.000000
0.046875 0.609375 0.000000
0.046875 0.625000 0.000000
0.046875 0.640625 0.000000
0.046875 0.656250 0.000000
0.046875 0.671875 0.000000
0.046875 0.687500 0.000000
0.046875 0.703125 0.000000
0.046875 0.718750 0.000000
0.046875 0.734375 0.000000
0.046875 0.750000 0.000000
0.046875 0.765625 0.000000
0.046875 0.781250 0.000000
0.046875 0.796875 0.000000
0.046875 0.812500 0.000000
0.046875 0.828125 0.000000
0.046875 0.843750 0.000000
0.046875 0.859375 0.000000
0.046875 0.875000 0.000000
0.046875 0.890625 0.000000
0.046875 0.906250 0.000000
0.046875 0.921875 0.000000
0.046875 0.937500 0.000000
0.046875 0.953125 0.000000
0.046875 0.968750 0.000000
0.046875 0.984375 0.000000
0.046875 1.000000 0.000000
0.062500 0.000000 0.000000
0.062500 0.015625 0.000000
0.062500 0.031250 0.000000
0.062500 0.046875 0.000000
0.062500 0.062500 0.000000
0.062500 0.078125 0.000000
0.062500 0.093750 0.000000
0.062500 0.109375 0.000000
0.062500 0.125000 0.000000
0.062500 0.140625 0.000000
0.062500 0.156250 0.000000
0.062500 0.171875 0.000000
0.062500 0.187500 0.000000
0.062500 0.203125 0.000000
0.062500 0.218750 0.000000
0.062500 0.234375 0.000000
0.062500 0.250000 0.000000
0.062500 0.265625 0.000000
0.062500 0.281250 0.000000
0.062500 0.296875 0.000000
0.062500 0.312500 0.000000
0.062500 0.328125 0.000000
0.062500 0.343750 0.000000
0.062500 0.359375 0.000000
0.062500 0.375000 0.000000
0.062500 0.390625 0.000000
0.062500 0.406250 0.000000
0.062500 0.421875 0.000000
0.062500 0.437500 0.000000
0.062500 0.453125 0.000000
0.062500 0.468750 0.000000
0.062500 0.484375 0.000000
0.062500 0.500000 0.000000
0.062500 0.515625 0.000000
0.062500 0.531250 0.000000
0.062500 0.546875 0.000000
0.062500 0.562500 0.000000
0.062500 0.578125 0.000000
0.062500 0.593750 0.000000
0.062500 0.609375 0.000000
0.062500 0.625000 0.000000
0.062500 0.640625 0.000000
0.062500 0.656250 0.000000
0.062500 0.671875 0.000000
0.062500 0.687500 0.000000
0.062500 0.703125 0.000000
0.062500 0.718750 0.000000
0.062500 0.734375 0.000000
0.062500 0.750000 0.000000
0.062500 0.765625 0.000000
0.062500 0.781250 0.000000
0.062500 0.796875 0.000000
0.062500 0.812500 0.000000
0.062500 0.828125 0.000000
0.062500 0.843750 0.000000
0.062500 0.859375 0.000000
0.062500 0.875000 0.000000
0.062500 0.890625 0.000000
0.062500 0.906250 0.000000
0.062500 0.921875 0.000000
0.062500 0.937500 0.000000
0.062500 0.953125 0.000000
0.062500 0.968750 0.000000
0.062500 0.984375 0.000000
0.062500 1.000000 0.000000
0.078125 0.000000 0.000000
0.078125 0.015625 0.000000
0.078125 0.031250 0.000000
0.078125 0.046875 0.000000
0.078125 0.062500 0.000000
0.078125 0.078125 0.000000
0.078125 0.093750 0.000000
0.078125 0.109375 0.000000
0.078125 0.125000 0.000000
0.078125 0.140625 0.000000
0.078125 0.156250 0.000000
0.078125 0.171875 0.000000
0.078125 0.187500 0.000000
0.078125 0.203125 0.000000
0.078125 0.218750 0.000000
0.078125 0.234375 0.000000
0.078125 0.250000 0.000000
0.078125 0.265625 0.000000
0.078125 0.281250 0.000000
0.078125 0.296875 0.000000
0.078125 0.312500 0.000000
0.078125 0.328125 0.000000
0.078125 0.343750 0.000000
0.078125 0.359375 0.000000
0.078125 0.375000 0.000000
0.078125 0.390625 0.000000
0.078125 0.406250 0.000000
0.078125 0.421875 0.000000
0.078125 0.437500 0.000000
0.078125 0.453125 0.000000
0.078125 0.468750 0.000000
0.078125 0.484375 0.000000
0.078125 0.500000 0.000000
0.078125 0.515625 0.000000
0.078125 0.531250 0.000000
0.078125 0.546875 0.000000
0.078125 0.562500 0.000000
0.078125 0.578125 0.000000
0.078125 0.593750 0.000000
0.078125 0.609375 0.000000
0.078125 0.625000 0.000000
[...]
POINT_DATA 4225
SCALARS phi FLOAT 1
LOOKUP_TABLE default
0.000000000000
0.000000059605
0.000000953674
0.000004827976
0.000015258789
0.000037252903
0.000077247620
0.000143110752
0.000244140625
0.000391066074
0.000596046448
0.000872671604
0.001235961914
0.001702368259
0.002289772034
0.003017485142
0.003906250000
0.004978239536
0.006257057190
0.007767736912
0.009536743164
0.011591970921
0.013962745667
0.016679823399
0.019775390625
0.023283064365
0.027237892151
0.031676352024
0.036636352539
0.042157232761
0.048279762268
0.055046141148
0.062500000000
0.070686399937
0.079651832581
0.089444220066
0.100112915039
0.111708700657
0.124283790588
0.137891829014
0.152587890625
0.168428480625
0.185471534729
0.203776419163
0.223403930664
0.244416296482
0.266877174377
0.290851652622
0.316406250000
0.343608915806
0.372529029846
0.403237402439
0.435806274414
0.470309317112
0.506821632385
0.545419752598
0.586181640625
0.629186689854
0.674515724182
0.722250998020
0.772476196289
0.825276434422
0.880738258362
0.938949644566
1.000000000000
0.000000059605
-0.952061133930
-0.884658403805
-0.782880995740
-0.659786532183
-0.529507975706
-0.404627541500
-0.294341073548
-0.203717404511
-0.133980629879
-0.083475011399
-0.048881601829
-0.026324450806
-0.012159102077
-0.003395876122
0.002178632248
0.006071866114
0.009241997530
0.012266427010
0.015482781089
0.019090219514
0.023214386462
0.027945298096
0.033357680645
0.039521090942
0.046504608374
0.054378868686
0.063216890426
0.073094390454
0.084089897403
0.096284790395
0.109763311960
0.124612572706
0.140922553701
0.158786108394
0.178298964667
0.199559727156
0.222669879929
0.247733789540
0.274858708520
0.304154779359
0.335735039057
0.369715424341
0.406214777664
0.445354854155
0.487260329713
0.532058810507
0.579880844239
0.630859933622
0.685132552713
0.742838166973
0.804119258286
0.869121356730
0.937993081758
1.010886196851
1.087955684109
1.169359849412
1.255260476621
1.345823064604
1.441217213401
1.541617300337
1.647203774516
1.758165919489
1.874708537142
0.998535215855
0.000000953674
-0.884658403805
-0.821907924288
-0.727260893648
-0.612840523930
-0.491769786657
-0.375732215186
-0.273266016062
-0.189075603315
-0.124293719029
-0.077377899394
-0.045240838075
-0.024278127093
-0.011100767116
-0.002928322160
0.002298324480
0.005982412545
0.009016975927
0.011941455546
0.015072734287
0.018599276652
0.022641478239
0.027286864308
0.032608980860
0.038676792475
0.045559037285
0.053326113390
0.062050844596
0.071808772360
0.082678260755
0.094740532590
0.108079682035
0.122782680022
0.138939377866
0.156642510820
0.175987702081
0.197073467408
0.220001220431
0.244875278717
0.271802870696
0.300894143548
0.332262172210
0.366022969684
0.402295498889
0.441201686349
0.482866438122
0.527417658459
0.574986271861
0.625706249412
0.679714640569
0.737151612049
0.798160496085
0.862887851314
0.931483541074
1.004100836268
1.080896553903
1.162031248983
1.247669489123
1.337980262349
1.433137608645
1.533321643873
1.638720299139
1.749532393493
1.865973123788
0.994141578674
0.000004827976
-0.782880995740
-0.727260893648
-0.643443335937
-0.542154527210
-0.435002774797
-0.332321885211
-0.241662188764
-0.167181492259
-0.109877119364
-0.068379261560
-0.039951273449
-0.021399110225
-0.009719467976
-0.002447595226
0.002243032210
0.005598716841
0.008414520584
0.011172905256
0.014159718139
0.017547512840
0.021448958673
0.025947988054
0.031116510731
0.037022726722
0.043734977112
0.051323411099
0.059860662148
0.069422105596
0.080085951435
0.091933276706
0.105048037565
0.119517075367
0.135430121543
0.152879802796
0.171961647047
0.192774090305
0.215418484546
0.239999106712
0.266623168948
0.295400830253
0.326445209756
0.359872401882
0.395801493744
0.434354585199
0.475656812102
0.519836373463
0.567024563432
0.617355809293
0.670967717096
0.728001127092
0.788600181969
0.852912412096
0.921088843778
0.993284139269
1.069656781547
1.150369323656
1.235588733263
1.325486880766
1.420241247667
1.520035975384
1.625063431850
1.735526510885
1.851641743161
0.986821234226
0.000015258789
-0.659786532183
-0.612840523930
-0.542154527210
-0.456768490837
-0.366462958086
-0.279942881629
-0.203566591965
-0.140832867426
-0.092576698382
-0.057638028058
-0.033704838308
-0.018079606235
-0.008225499559
-0.002059432247
0.001964014821
0.004901558166
0.007429978349
0.009963009633
0.012749119941
0.015941748614
0.019644326426
0.023936528288
0.028888359239
0.034567158941
0.041040845460
0.048379318977
0.056655030907
0.065943200834
0.076321895051
0.087872054692
0.100677507165
0.114824972956
0.130404071807
0.147507329548
0.166230185962
0.186671003849
0.208931079387
0.233114653925
0.259328927378
0.287684073426
0.318293256795
0.351272652941
0.386741470568
0.424821977494
0.465639530542
0.509322610285
0.556002861750
0.605815142486
0.658897579861
0.715391640051
0.775442212071
0.839197711382
0.906810209371
0.978435597509
1.054233798634
1.134369043082
1.219010234920
1.308331443724
1.402512569701
1.501740240198
1.606208988789
1.716122702812
1.831696106231
0.976577758789
0.000037252903
-0.529507975706
-0.491769786657
-0.435002774797
-0.366462958086
-0.293998295820
-0.224591807434
-0.163341976386
-0.113051426703
-0.074384289270
-0.046403104618
-0.027245589758
-0.014739841023
-0.006842702629
-0.001874928105
0.001411529029
0.003872880961
0.006060860502
0.008316582157
0.010849051749
0.013791558785
0.017237820352
0.021263056716
0.025935298676
0.031321009740
0.037487689374
0.044504999423
0.052445220954
0.061383428829
0.071397555631
0.082568415561
0.094979715353
0.108718061884
0.123872969706
0.140536869510
0.158805117880
0.178776008453
0.200550784652
0.224233654111
0.249931805016
0.277755424590
0.307817720045
0.340234942371
0.375126413457
0.412614557107
0.452824934724
0.495886286561
0.541930579742
0.591093064542
0.643512340884
0.699330437569
0.758692907555
0.821748943652
0.888651520453
0.959557570204
1.034628202890
1.114028983969
1.197930286873
1.286507740731
1.379942794308
1.478423409121
1.582144865351
1.691310590859
1.806132776408
0.963416159153
0.000077247620
-0.404627541500
-0.375732215186
-0.332321885211
-0.279942881629
-0.224591807434
-0.171602475563
-0.124866985651
-0.086521641547
-0.057067473069
-0.035780792243
-0.021230592628
-0.011748833274
-0.005765509316
-0.001988365423
0.000545722104
0.002500890956
0.004309113809
0.006241982004
0.008470743925
0.011109427975
0.014242480970
0.017940883881
0.022270798044
0.027297864190
0.033089193200
0.039714227838
0.047245092812
0.055756729347
0.065326945548
0.076036436553
0.087968795179
0.101210520453
0.115851026539
0.131982652830
0.149700675512
0.169103320741
0.190291779581
0.213370224881
0.238445830312
0.265628791831
0.295032351925
0.326772827036
0.360969638687
0.397745348930
0.437225700884
0.479539665325
0.524819494520
0.573200784790
0.624822549686
0.679827306162
0.738361176740
0.800574011516
0.866619534818
0.936655522574
1.010844017785
1.089351592782
1.172349667603
1.260014892711
1.352529598901
1.450082303478
1.552868232823
1.661089769889
1.774956660693
0.947342872620
0.000143110752
-0.294341073548
-0.273266016062
-0.241662188764
-0.203566591965
-0.163341976386
-0.124866985651
-0.090969481829
-0.063198187111
-0.041910630936
-0.026572165228
-0.016132697178
-0.009369072319
-0.005128987780
-0.002461785535
-0.000655812559
0.000783570214
0.002182672445
0.003751763470
0.005628802531
0.007910847579
0.010674185973
0.013986072988
0.017911030140
0.022513977414
0.027861684385
0.034023399172
0.041071104938
0.049079619727
0.058126635281
0.068292734247
0.079661400856
0.092319030507
0.106354940100
0.121861379725
0.138933545959
0.157669596925
0.178170669279
0.200540897308
0.224887434397
0.251320477141
0.279953292461
0.310902248165
0.344286847462
0.380229768060
0.418856906626
0.460297429522
0.504683830965
0.552152000007
0.602841298028
0.656894648836
0.714458643929
0.775683665975
0.840724034190
0.909738175827
0.982888828386
1.060343277088
1.142273630981
1.228857137827
1.320276530982
1.416720388596
1.518383464344
1.625466919432
1.738178354931
0.928365767002
0.000244140625
-0.203717404511
-0.189075603315
-0.167181492259
-0.140832867426
-0.113051426703
-0.086521641547
-0.063198187111
-0.044147869766
-0.029610786115
-0.019207754066
-0.012201570746
-0.007734411339
-0.004996926574
-0.003318894237
-0.002195084334
-0.001269974924
-0.000303965197
0.000862904266
0.002341290783
0.004214340548
0.006551655865
0.009417440718
0.012874872424
0.016988276842
0.021824137309
0.027451533236
0.033942320434
0.041371202947
0.049815762861
0.059356475447
0.070076720200
0.082062791557
0.095403910640
0.110192238476
0.126522890924
0.144493955471
0.164206510073
0.185764644250
0.209275482684
0.234849211628
0.262599108475
0.292641574931
0.325096174292
0.360085673442
0.397736090297
0.438176747564
0.481540333847
0.527962973342
0.577584305565
0.630547576867
0.686999745705
0.747091603976
0.810977916906
0.878817584064
0.950773823821
1.027014382689
1.107711769051
1.193043507052
1.283192400182
1.378346784328
1.478700736981
1.584454194733
1.695812921895
0.906494140625
0.000391066074
-0.133980629879
-0.124293719029
-0.109877119364
-0.092576698382
-0.074384289270
-0.057067473069
-0.041910630936
-0.029610786115
-0.020318147275
-0.013773179233
-0.009479167015
-0.006858988152
-0.005366759779
-0.004547672725
-0.004055040599
-0.003640177348
-0.003130060341
-0.002403351958
-0.001370348457
0.000041422375
0.001896434026
0.004256547364
0.007183902955
0.010742361848
0.014998175543
0.020020279007
0.025880413056
0.032653175195
0.040416042935
0.049249387755
0.059236486750
0.070463534544
0.083019656392
0.096996922846
0.112490366188
0.129597998795
0.148420833638
0.169062907114
0.191631304491
0.216236188248
0.242990829673
0.272011644142
0.303418230556
0.337333415515
0.373883302885
0.413197329557
0.455408328269
0.500652598563
0.549069987048
0.600803978318
0.656001797990
0.714814529393
0.777397245421
0.843909156780
0.914513777277
0.989379105571
1.068677820747
1.152587485769
1.241290747979
1.334975519394
1.433835112243
1.538068299186
1.647879267147
0.881738722324
0.000596046448
-0.083475011399
-0.077377899394
-0.068379261560
-0.057638028058
-0.046403104618
-0.035780792243
-0.026572165228
-0.019207754066
-0.013773179233
-0.010095440585
-0.007851486257
-0.006666819036
-0.006185703386
-0.006108776282
-0.006203746122
-0.006299003181
-0.006269550417
-0.006021904958
-0.005481472674
-0.004583478257
-0.003267148942
-0.001472319421
0.000862393411
0.003800501807
0.007408073094
0.011753918189
0.016909672680
0.022949832993
0.029951775449
0.037995769765
0.047164991497
0.057545535139
0.069226428514
0.082299648766
0.096860140153
0.113005833806
0.130837669667
0.150459620814
0.171978720443
0.195505091796
0.221151981373
0.249035795834
0.279276143035
0.311995877709
0.347321152400
0.385381474310
0.426309768819
0.470242450517
0.517319502674
0.567684566117
0.621485038494
0.678872184850
0.740001260212
0.805031644467
0.874126989059
0.947455373826
1.025189470408
1.107506706097
1.194589418545
1.286624987889
1.383805929204
1.486329926491
1.594399791872
0.854111671448
0.000872671604
-0.048881601829
-0.045240838075
-0.039951273449
-0.033704838308
-0.027245589758
-0.021230592628
-0.016132697178
-0.012201570746
-0.009479167015
-0.007851486257
-0.007113646067
-0.007028958999
-0.007370982636
-0.007946035491
-0.008599588708
-0.009212420941
-0.009692173988
-0.009964293569
-0.009964453459
-0.009633111341
-0.008912015377
-0.007742162575
-0.006062698680
-0.003810366364
-0.000919244769
0.002679368418
0.007057010422
0.012288079994
0.018449853980
0.025622500872
0.033889094147
0.043335626487
0.054051025357
0.066127170186
0.079658911354
0.094744091157
0.111483566965
0.129981236787
0.150344067499
0.172682126019
0.197108613752
0.223739904661
0.252695587388
0.284098511868
0.318074840955
0.354754107616
0.394269278309
0.436756823191
0.482356793824
0.531212909040
0.583472649541
0.639287361663
0.698812370434
0.762207101567
0.829635211293
0.901264721831
0.977268158834
1.057822685198
1.143110223479
1.233317556925
1.328636397676
1.429263410831
1.535400186119
0.823626577854
0.001235961914
-0.026324450806
-0.024278127093
-0.021399110225
-0.018079606235
-0.014739841023
-0.011748833274
-0.009369072319
-0.007734411339
-0.006858988152
-0.006666819036
-0.007028958999
-0.007797222165
-0.008828173688
-0.009995968721
-0.011195987837
-0.012342630320
-0.013364483201
-0.014199140072
-0.014788867205
-0.015077487080
-0.015008376060
-0.014523291470
-0.013561736773
-0.012060640283
-0.009954200591
-0.007173813593
-0.003648036390
0.000697433565
0.005939773794
0.012159050727
0.019438233932
0.027863211366
0.037522805993
0.048508794008
0.060915924837
0.074841943116
0.090387612853
0.107656743977
0.126756221540
0.147796037818
0.170889327622
0.196152407152
0.223704816739
0.253669367890
0.286172195056
0.321342812567
0.359314177232
0.400222757058
0.444208606554
0.491415449011
0.541990766025
0.596085894341
0.653856129746
0.715460837307
0.781063566539
0.850832169226
0.924938916483
1.003560610363
1.086878683933
1.175079282719
1.268353319946
1.366896498947
1.470909298775
0.790298461914
0.001702368259
-0.012159102077
-0.011100767116
-0.009719467976
-0.008225499559
-0.006842702629
-0.005765509316
-0.005128987780
-0.004996926574
-0.005366759779
-0.006185703386
-0.007370982636
-0.008828173688
-0.010464247010
-0.012194542467
-0.013944738431
-0.015649643635
-0.017250561760
-0.018692465395
-0.019921630700
-0.020883934211
-0.021523755846
-0.021783333392
-0.021602410094
-0.020918053164
-0.019664563283
-0.017773428661
-0.015173299177
-0.011789968721
-0.007546360314
-0.002362511651
0.003844439961
0.011160273749
0.019673702983
0.029476394062
0.040662987356
0.053331120004
0.067581450854
0.083517687768
0.101246617524
0.120878138555
0.142525296807
0.166304325002
0.192334685631
0.220739118001
0.251643689691
0.285177852778
0.321474505176
0.360670057430
0.402904505235
0.448321507870
0.497068472594
0.549296644829
0.605161203643
0.664821361634
0.728440467740
0.796186110832
0.868230221132
0.944749165659
1.025923833141
1.111939703401
1.202986896312
1.299260196498
1.400959052075
0.754143774509
0.002289772034
-0.003395876122
-0.002928322160
-0.002447595226
-0.002059432247
-0.001874928105
-0.001988365423
-0.002461785535
-0.003318894237
-0.004547672725
-0.006108776282
-0.007946035491
-0.009995968721
-0.012194542467
-0.014480783702
-0.016797796351
-0.019092130115
-0.021312408685
-0.023407858340
-0.025327074682
-0.027017132227
-0.028423008114
-0.029487239968
-0.030149735926
-0.030347673518
-0.030015445906
-0.029084631318
-0.027483972880
-0.025139362562
-0.021973826310
-0.017907509041
-0.012857658871
-0.006738610232
0.000538234368
0.009064424116
0.018934481396
0.030245925206
0.043099296673
0.057598186887
0.073849267251
0.091962322597
0.112050287297
0.134229284637
0.158618669716
0.185341076165
0.214522466937
0.246292189475
0.280783035476
0.318131305489
0.358476878468
0.401963286331
0.448737793414
0.498951480486
0.552759332752
0.610320330850
0.671797543482
0.737358219743
0.807173878704
0.881420393268
0.960278064948
1.043931686073
1.132570586322
1.226388661399
1.325584383327
0.715180397034
0.003017485142
0.002178632248
0.002298324480
0.002243032210
0.001964014821
0.001411529029
0.000545722104
-0.000655812559
-0.002195084334
-0.004055040599
-0.006203746122
-0.008599588708
-0.011195987837
-0.013944738431
-0.016797796351
-0.019707779396
-0.022627652663
-0.025510046535
-0.028306524196
-0.030966965826
-0.033439121585
-0.035668319487
-0.037597288919
-0.039166059402
-0.040311903387
-0.040969302523
-0.041069925409
-0.040542610409
-0.039313350308
-0.037305277283
-0.034438647420
-0.030630824372
-0.025796261902
-0.019846485093
-0.012690070062
-0.004232621980
0.005623248774
0.016977952508
0.029934948352
0.044600774853
0.061085083209
0.079500673389
0.099963533347
0.122592881568
0.147511213168
0.174844349770
0.204721493359
0.237275284278
0.272641863489
0.310960939138
0.352375857360
0.397033677120
0.445085248677
0.496685295067
0.551992495640
0.611169570419
0.674383363642
0.741804924496
0.813609582769
0.889977016954
0.971091312432
1.057141007744
1.148319127787
1.244823203950
0.673427641392
0.003906250000
0.006071866114
0.005982412545
0.005598716841
0.004901558166
0.003872880961
0.002500890956
0.000783570214
-0.001269974924
-0.003640177348
-0.006299003181
-0.009212420941
-0.012342630320
-0.015649643635
-0.019092130115
-0.022627652663
-0.026212518308
-0.029801453773
-0.033347255739
-0.036800494929
-0.040109298919
-0.043219207467
-0.046073082100
-0.048611051087
-0.050770475128
-0.052485924086
-0.053689159063
-0.054309116702
-0.054271894149
-0.053500733821
-0.051916007566
-0.049435199910
-0.045972890196
-0.041440733414
-0.035747439572
-0.028798751412
-0.020497420321
-0.010743180248
0.000567280555
0.013540350136
0.028285526006
0.044915451040
0.063545952307
0.084296083038
0.107288167905
0.132647851778
0.160504152113
0.190989515070
0.224239875404
0.260394720115
0.299597155719
0.341993978878
0.387735749972
0.436976868990
0.489875652882
0.546594413295
0.607299533312
0.672161541652
0.741355182564
0.815059479664
0.893457792077
0.976737861640
1.065091850574
1.158716369905
0.628906250000
0.004978239536
0.009241997530
0.009016975927
0.008414520584
0.007429978349
0.006060860502
0.004309113809
0.002182672445
-0.000303965197
-0.003130060341
-0.006269550417
-0.009692173988
-0.013364483201
-0.017250561760
-0.021312408685
-0.025510046535
-0.029801453773
-0.034142416593
-0.038486367755
-0.042784248361
-0.046984404126
-0.051032513667
-0.054871540833
-0.058441702722
-0.061680446886
-0.064522433367
-0.066899518973
-0.068740742357
-0.069972309101
-0.070517576363
-0.070297036806
-0.069228301602
-0.067226082320
-0.064202171557
-0.060065422114
-0.054721724595
-0.048073983233
-0.040022089796
-0.030462895404
-0.019290180078
-0.006394619853
0.008336248713
0.025018066807
0.043769694571
0.064713255388
0.087974183397
0.113681274311
0.141966739611
0.172966264113
0.206819066836
0.243667965008
0.283659440926
0.326943711257
0.373674798207
0.424010601795
0.478112972317
0.536147781891
0.598284993849
0.664698728669
0.735567325174
0.811073395891
0.891403875787
0.976750064135
1.067307659870
0.581638395786
0.006257057190
0.012266427010
0.011941455546
0.011172905256
0.009963009633
0.008316582157
0.006241982004
0.003751763470
0.000862904266
-0.002403351958
-0.006021904958
-0.009964293569
-0.014199140072
-0.018692465395
-0.023407858340
-0.028306524196
-0.033347255739
-0.038486367755
-0.043677624389
-0.048872175074
-0.054018504342
-0.059062394698
-0.063946899368
-0.068612321473
-0.072996196891
-0.077033278980
-0.080655524036
-0.083792076816
-0.086369255734
-0.088310537485
-0.089536540888
-0.089965009791
-0.089510794881
-0.088085834249
-0.085599132554
-0.081956738644
-0.077061721469
-0.070814144144
-0.063111035994
-0.053846362435
-0.042910992530
-0.030192664061
-0.015575945990
0.001057801849
0.019830471939
0.040867255238
0.064296690388
0.090250715996
0.118864725948
0.150277627671
0.184631903167
0.222073672526
0.262752759547
0.306822758935
0.354441104451
0.405769137209
0.460972173269
0.520219569544
0.583684787054
0.651545450599
0.723983404117
0.801184761236
0.883339950944
0.970643758768
0.531647682190
0.007767736912
0.015482781089
0.015072734287
0.014159718139
0.012749119941
0.010849051749
0.008470743925
0.005628802531
0.002341290783
-0.001370348457
-0.005481472674
-0.009964453459
-0.014788867205
-0.019921630700
-0.025327074682
-0.030966965826
-0.036800494929
-0.042784248361
-0.048872175074
-0.055015555918
-0.061162977705
-0.067260311937
-0.073250697065
-0.079074522982
-0.084669416714
-0.089970228580
-0.094909018352
-0.099415041118
-0.103414732652
-0.106831694112
-0.109586675932
-0.111597560779
-0.112779345422
-0.113044121383
-0.112301054231
-0.110456361383
-0.107413288248
-0.103072082601
-0.097329967012
-0.090081109206
-0.081216590208
-0.070624370130
-0.058189251477
-0.043792839863
-0.027313502017
-0.008626321029
0.012396951227
0.035887944491
0.061981723292
0.090816842788
0.122535407109
0.157283129927
0.195209396919
0.236467329656
0.281213850394
0.329609747117
0.381819738139
0.438012535516
0.498360906540
0.563041732661
0.632236065317
0.706129178390
0.784910617301
0.868774245108
0.478959143162