# vtk DataFile Version 2.0
TITLE = "Quad data"
ASCII
DATASET STRUCTURED_GRID
DIMENSIONS 33 33 1
POINTS 1089 FLOAT
0.000000 0.000000 0.000000
0.000000 0.031250 0.000000
0.000000 0.062500 0.000000
0.000000 0.093750 0.000000
0.000000 0.125000 0.000000
0.000000 0.156250 0.000000
0.000000 0.187500 0.000000
0.000000 0.218750 0.000000
0.000000 0.250000 0.000000
0.000000 0.281250 0.000000
0.000000 0.312500 0.000000
0.000000 0.343750 0.000000
0.000000 0.375000 0.000000
0.000000 0.406250 0.000000
0.000000 0.437500 0.000000
0.000000 0.468750 0.000000
0.000000 0.500000 0.000000
0.000000 0.531250 0.000000
0.000000 0.562500 0.000000
0.000000 0.593750 0.000000
0.000000 0.625000 0.000000
0.000000 0.656250 0.000000
0.000000 0.687500 0.000000
0.000000 0.718750 0.000000
0.000000 0.750000 0.000000
0.000000 0.781250 0.000000
0.000000 0.812500 0.000000
0.000000 0.843750 0.000000
0.000000 0.875000 0.000000
0.000000 0.906250 0.000000
0.000000 0.937500 0.000000
0.000000 0.968750 0.000000
0.000000 1.000000 0.000000
0.031250 0.000000 0.000000
0.031250 0.031250 0.000000
0.031250 0.062500 0.000000
0.031250 0.093750 0.000000
0.031250 0.125000 0.000000
0.031250 0.156250 0.000000
0.031250 0.187500 0.000000
0.031250 0.218750 0.000000
0.031250 0.250000 0.000000
0.031250 0.281250 0.000000
0.031250 0.312500 0.000000
0.031250 0.343750 0.000000
0.031250 0.375000 0.000000
0.031250 0.406250 0.000000
0.031250 0.437500 0.000000
0.031250 0.468750 0.000000
0.031250 0.500000 0.000000
0.031250 0.531250 0.000000
0.031250 0.562500 0.000000
0.031250 0.593750 0.000000
0.031250 0.625000 0.000000
0.031250 0.656250 0.000000
0.031250 0.687500 0.000000
0.031250 0.718750 0.000000
0.031250 0.750000 0.000000
0.031250 0.781250 0.000000
0.031250 0.812500 0.000000
0.031250 0.843750 0.000000
0.031250 0.875000 0.000000
0.031250 0.906250 0.000000
0.031250 0.937500 0.000000
0.031250 0.968750 0.000000
0.031250 1.000000 0.000000
0.062500 0.000000 0.000000
0.062500 0.031250 0.000000
0.062500 0.062500 0.000000
0.062500 0.093750 0.000000
0.062500 0.125000 0.000000
0.062500 0.156250 0.000000
0.062500 0.187500 0.000000
0.062500 0.218750 0.000000
0.062500 0.250000 0.000000
0.062500 0.281250 0.000000
0.062500 0.312500 0.000000
0.062500 0.343750 0.000000
0.062500 0.375000 0.000000
0.062500 0.406250 0.000000
0.062500 0.437500 0.000000
0.062500 0.468750 0.000000
0.062500 0.500000 0.000000
0.062500 0.531250 0.000000
0.062500 0.562500 0.000000
0.062500 0.593750 0.000000
0.062500 0.625000 0.000000
0.062500 0.656250 0.000000
0.062500 0.687500 0.000000
0.062500 0.718750 0.000000
0.062500 0.750000 0.000000
0.062500 0.781250 0.000000
0.062500 0.812500 0.000000
0.062500 0.843750 0.000000
0.062500 0.875000 0.000000
0.062500 0.906250 0.000000
0.062500 0.937500 0.000000
0.062500 0.968750 0.000000
0.062500 1.000000 0.000000
0.093750 0.000000 0.000000
0.093750 0.031250 0.000000
0.093750 0.062500 0.000000
0.093750 0.093750 0.000000
0.093750 0.125000 0.000000
0.093750 0.156250 0.000000
0.093750 0.187500 0.000000
0.093750 0.218750 0.000000
0.093750 0.250000 0.000000
0.093750 0.281250 0.000000
0.093750 0.312500 0.000000
0.093750 0.343750 0.000000
0.093750 0.375000 0.000000
0.093750 0.406250 0.000000
0.093750 0.437500 0.000000
0.093750 0.468750 0.000000
0.093750 0.500000 0.000000
0.093750 0.531250 0.000000
0.093750 0.562500 0.000000
0.093750 0.593750 0.000000
0.093750 0.625000 0.000000
0.093750 0.656250 0.000000
0.093750 0.687500 0.000000
0.093750 0.718750 0.000000
0.093750 0.750000 0.000000
0.093750 0.781250 0.000000
0.093750 0.812500 0.000000
0.093750 0.843750 0.000000
0.093750 0.875000 0.000000
0.093750 0.906250 0.000000
0.093750 0.937500 0.000000
0.093750 0.968750 0.000000
0.093750 1.000000 0.000000
0.125000 0.000000 0.000000
0.125000 0.031250 0.000000
0.125000 0.062500 0.000000
0.125000 0.093750 0.000000
0.125000 0.125000 0.000000
0.125000 0.156250 0.000000
0.125000 0.187500 0.000000
0.125000 0.218750 0.000000
0.125000 0.250000 0.000000
0.125000 0.281250 0.000000
0.125000 0.312500 0.000000
0.125000 0.343750 0.000000
0.125000 0.375000 0.000000
0.125000 0.406250 0.000000
0.125000 0.437500 0.000000
0.125000 0.468750 0.000000
0.125000 0.500000 0.000000
0.125000 0.531250 0.000000
0.125000 0.562500 0.000000
0.125000 0.593750 0.000000
0.125000 0.625000 0.000000
0.125000 0.656250 0.000000
0.125000 0.687500 0.000000
0.125000 0.718750 0.000000
0.125000 0.750000 0.000000
0.125000 0.781250 0.000000
0.125000 0.812500 0.000000
0.125000 0.843750 0.000000
0.125000 0.875000 0.000000
0.125000 0.906250 0.000000
0.125000 0.937500 0.000000
0.125000 0.968750 0.000000
0.125000 1.000000 0.000000
0.156250 0.000000 0.000000
0.156250 0.031250 0.000000
0.156250 0.062500 0.000000
0.156250 0.093750 0.000000
0.156250 0.125000 0.000000
0.156250 0.156250 0.000000
0.156250 0.187500 0.000000
0.156250 0.218750 0.000000
0.156250 0.250000 0.000000
0.156250 0.281250 0.000000
0.156250 0.312500 0.000000
0.156250 0.343750 0.000000
0.156250 0.375000 0.000000
0.156250 0.406250 0.000000
0.156250 0.437500 0.000000
0.156250 0.468750 0.000000
0.156250 0.500000 0.000000
0.156250 0.531250 0.000000
0.156250 0.562500 0.000000
0.156250 0.593750 0.000000
0.156250 0.625000 0.000000
0.156250 0.656250 0.000000
0.156250 0.687500 0.000000
0.156250 0.718750 0.000000
0.156250 0.750000 0.000000
0.156250 0.781250 0.000000
0.156250 0.812500 0.000000
0.156250 0.843750 0.000000
0.156250 0.875000 0.000000
0.156250 0.906250 0.000000
0.156250 0.937500 0.000000
0.156250 0.968750 0.000000
0.156250 1.000000 0.000000
0.187500 0.000000 0.000000
0.187500 0.031250 0.000000
0.187500 0.062500 0.000000
0.187500 0.093750 0.000000
0.187500 0.125000 0.000000
0.187500 0.156250 0.000000
0.187500 0.187500 0.000000
0.187500 0.218750 0.000000
0.187500 0.250000 0.000000
0.187500 0.281250 0.000000
0.187500 0.312500 0.000000
0.187500 0.343750 0.000000
0.187500 0.375000 0.000000
0.187500 0.406250 0.000000
0.187500 0.437500 0.000000
0.187500 0.468750 0.000000
0.187500 0.500000 0.000000
0.187500 0.531250 0.000000
0.187500 0.562500 0.000000
0.187500 0.593750 0.000000
0.187500 0.625000 0.000000
0.187500 0.656250 0.000000
0.187500 0.687500 0.000000
0.187500 0.718750 0.000000
0.187500 0.750000 0.000000
0.187500 0.781250 0.000000
0.187500 0.812500 0.000000
0.187500 0.843750 0.000000
0.187500 0.875000 0.000000
0.187500 0.906250 0.000000
0.187500 0.937500 0.000000
0.187500 0.968750 0.000000
0.187500 1.000000 0.000000
0.218750 0.000000 0.000000
0.218750 0.031250 0.000000
0.218750 0.062500 0.000000
0.218750 0.093750 0.000000
0.218750 0.125000 0.000000
0.218750 0.156250 0.000000
0.218750 0.187500 0.000000
0.218750 0.218750 0.000000
0.218750 0.250000 0.000000
0.218750 0.281250 0.000000
0.218750 0.312500 0.000000
0.218750 0.343750 0.000000
0.218750 0.375000 0.000000
0.218750 0.406250 0.000000
0.218750 0.437500 0.000000
0.218750 0.468750 0.000000
0.218750 0.500000 0.000000
0.218750 0.531250 0.000000
0.218750 0.562500 0.000000
0.218750 0.593750 0.000000
0.218750 0.625000 0.000000
0.218750 0.656250 0.000000
0.218750 0.687500 0.000000
0.218750 0.718750 0.000000
0.218750 0.750000 0.000000
0.218750 0.781250 0.000000
0.218750 0.812500 0.000000
0.218750 0.843750 0.000000
0.218750 0.875000 0.000000
0.218750 0.906250 0.000000
0.218750 0.937500 0.000000
0.218750 0.968750 0.000000
0.218750 1.000000 0.000000
0.250000 0.000000 0.000000
0.250000 0.031250 0.000000
0.250000 0.062500 0.000000
0.250000 0.093750 0.000000
0.250000 0.125000 0.000000
0.250000 0.156250 0.000000
0.250000 0.187500 0.000000
0.250000 0.218750 0.000000
0.250000 0.250000 0.000000
0.250000 0.281250 0.000000
0.250000 0.312500 0.000000
0.250000 0.343750 0.000000
0.250000 0.375000 0.000000
0.250000 0.406250 0.000000
0.250000 0.437500 0.000000
0.250000 0.468750 0.000000
0.250000 0.500000 0.000000
0.250000 0.531250 0.000000
0.250000 0.562500 0.000000
0.250000 0.593750 0.000000
0.250000 0.625000 0.000000
0.250000 0.656250 0.000000
0.250000 0.687500 0.000000
0.250000 0.718750 0.000000
0.250000 0.750000 0.000000
0.250000 0.781250 0.000000
0.250000 0.812500 0.000000
0.250000 0.843750 0.000000
0.250000 0.875000 0.000000
0.250000 0.906250 0.000000
0.250000 0.937500 0.000000
0.250000 0.968750 0.000000
0.250000 1.000000 0.000000
0.281250 0.000000 0.000000
0.281250 0.031250 0.000000
0.281250 0.062500 0.000000
0.281250 0.093750 0.000000
0.281250 0.125000 0.000000
0.281250 0.156250 0.000000
0.281250 0.187500 0.000000
0.281250 0.218750 0.000000
0.281250 0.250000 0.000000
0.281250 0.281250 0.000000
0.281250 0.312500 0.000000
0.281250 0.343750 0.000000
0.281250 0.375000 0.000000
0.281250 0.406250 0.000000
0.281250 0.437500 0.000000
0.281250 0.468750 0.000000
0.281250 0.500000 0.000000
0.281250 0.531250 0.000000
0.281250 0.562500 0.000000
0.281250 0.593750 0.000000
0.281250 0.625000 0.000000
0.281250 0.656250 0.000000
0.281250 0.687500 0.000000
0.281250 0.718750 0.000000
0.281250 0.750000 0.000000
0.281250 0.781250 0.000000
0.281250 0.812500 0.000000
0.281250 0.843750 0.000000
0.281250 0.875000 0.000000
0.281250 0.906250 0.000000
0.281250 0.937500 0.000000
0.281250 0.968750 0.000000
0.281250 1.000000 0.000000
0.312500 0.000000 0.000000
0.312500 0.031250 0.000000
0.312500 0.062500 0.000000
0.312500 0.093750 0.000000
0.312500 0.125000 0.000000
0.312500 0.156250 0.000000
0.312500 0.187500 0.000000
0.312500 0.218750 0.000000
0.312500 0.250000 0.000000
0.312500 0.281250 0.000000
0.312500 0.312500 0.000000
0.312500 0.343750 0.000000
0.312500 0.375000 0.000000
0.312500 0.406250 0.000000
0.312500 0.437500 0.000000
0.312500 0.468750 0.000000
0.312500 0.500000 0.000000
0.312500 0.531250 0.000000
0.312500 0.562500 0.000000
0.312500 0.593750 0.000000
0.312500 0.625000 0.000000
0.312500 0.656250 0.000000
0.312500 0.687500 0.000000
0.312500 0.718750 0.000000
0.312500 0.750000 0.000000
0.312500 0.781250 0.000000
0.312500 0.812500 0.000000
0.312500 0.843750 0.000000
0.312500 0.875000 0.000000
0.312500 0.906250 0.000000
0.312500 0.937500 0.000000
0.312500 0.968750 0.000000
0.312500 1.000000 0.000000
0.343750 0.000000 0.000000
0.343750 0.031250 0.000000
0.343750 0.062500 0.000000
[...]
POINT_DATA 1089
SCALARS phi FLOAT 1
LOOKUP_TABLE default
0.000000000000
0.000000953674
0.000015258789
0.000077247620
0.000244140625
0.000596046448
0.001235961914
0.002289772034
0.003906250000
0.006257057190
0.009536743164
0.013962745667
0.019775390625
0.027237892151
0.036636352539
0.048279762268
0.062500000000
0.079651832581
0.100112915039
0.124283790588
0.152587890625
0.185471534729
0.223403930664
0.266877174377
0.316406250000
0.372529029846
0.435806274414
0.506821632385
0.586181640625
0.674515724182
0.772476196289
0.880738258362
1.000000000000
0.000000953674
0.000004006887
0.000007059135
0.000045195657
0.000175990386
0.000479744802
0.001059573866
0.002041441242
0.003574175626
0.005829479128
0.009001931968
0.013308995279
0.018991012862
0.026311212328
0.035555705847
0.047033490647
0.061076449326
0.078039350022
0.098299846472
0.122258477953
0.150338669112
0.182986729654
0.220671853843
0.263886119753
0.313144488126
0.368984800618
0.431967776991
0.502677010428
0.581718959136
0.669722930032
0.767341043510
0.875248147512
0.994141578674
0.000015258789
0.000007059135
-0.000036228635
-0.000079520226
-0.000065127075
0.000087359231
0.000481136568
0.001242230955
0.002519518214
0.004484736510
0.007332493933
0.011280273258
0.016568435030
0.023460219613
0.032241748566
0.043222025557
0.056732936949
0.073129252120
0.092788623566
0.116111586801
0.143521560031
0.175464843571
0.212410618933
0.254850947448
0.303300768215
0.358297895019
0.420403011568
0.490199663919
0.568294247925
0.655315987587
0.751916896366
0.858771707572
0.976577758789
0.000077247620
0.000045195657
-0.000079520226
-0.000261932225
-0.000444352685
-0.000546335841
-0.000464639550
-0.000073197058
0.000776902060
0.002257424476
0.004563001418
0.007911134236
0.012542198189
0.018719445035
0.026729004817
0.036879887074
0.049503981613
0.064956058949
0.083613770443
0.105877648160
0.132171104439
0.162940431112
0.198654798293
0.239806252602
0.286909714561
0.340502974818
0.401146688576
0.469424367285
0.545942366065
0.631329864651
0.726238839149
0.831344023782
0.947342872620
0.000244140625
0.000175990386
-0.000065127075
-0.000444352685
-0.000904037911
-0.001363737842
-0.001720194257
-0.001847318684
-0.001596178615
-0.000794987148
0.000750904551
0.003259012664
0.006969724592
0.012146301730
0.019074881415
0.028064478290
0.039446985181
0.053577173603
0.070832693916
0.091614075168
0.116344724593
0.145470926727
0.179461842052
0.218809505040
0.264028821386
0.315657564130
0.374256368244
0.440408723096
0.514720962090
0.597822248878
0.690364560425
0.793022670073
0.906494140625
0.000596046448
0.000479744802
0.000087359231
-0.000546335841
-0.001363737842
-0.002284419590
-0.003205123652
-0.003999753562
-0.004519365035
-0.004592158417
-0.004023472633
-0.002595780507
-0.000068685218
0.003821082330
0.009359665444
0.016856083002
0.026642230362
0.039072879877
0.054525681069
0.073401160456
0.096122721032
0.123136641370
0.154912074243
0.191941044709
0.234738447467
0.283842043315
0.339812454474
0.403233158536
0.474710480909
0.554873586035
0.644374468606
0.743887947928
0.854111671448
0.001235961914
0.001059573866
0.000481136568
-0.000464639550
-0.001720194257
-0.003205123652
-0.004816179797
-0.006427266937
-0.007889436489
-0.009030882035
-0.009656934878
-0.009550060333
-0.008469854756
-0.006153043233
-0.002313477826
0.003357863695
0.011192878713
0.021546340258
0.034795897175
0.051342073955
0.071608270245
0.096040759981
0.125108690123
0.159304078904
0.199141813513
0.245159647127
0.297918195204
0.358000931037
0.426014180744
0.502587118264
0.588371761568
0.684042972304
0.790298461914
0.002289772034
0.002041441242
0.001242230955
-0.000073197058
-0.001847318684
-0.003999753562
-0.006427266937
-0.009003768685
-0.011580310846
-0.013985084608
-0.016023417285
-0.017477769594
-0.018107733326
-0.017650029454
-0.015818506644
-0.012304140149
-0.006775031042
0.001123594227
0.011769383981
0.025562861172
0.042927422925
0.064309339782
0.090177754591
0.121024681019
0.157365001655
0.199736465692
0.248699686190
0.304838137065
0.368758150068
0.441088912318
0.522482465331
0.613613706868
0.715180397034
0.003906250000
0.003574175626
0.002519518214
0.000776902060
-0.001596178615
-0.004519365035
-0.007889436489
-0.011580310846
-0.015443043696
-0.019305826754
-0.022973985998
-0.026229979797
-0.028833397212
-0.030520956536
-0.031006504109
-0.029981013400
-0.027112584369
-0.022046443087
-0.014404941608
-0.003787558098
0.010229102790
0.028091309268
0.050268201504
0.077251790435
0.109556956306
0.147721446968
0.192305876013
0.243893720905
0.303091321386
0.370527878624
0.446855455715
0.532748980314
0.628906250000
0.006257057190
0.005829479128
0.004484736510
0.002257424476
-0.000794987148
-0.004592158417
-0.009030882035
-0.013985084608
-0.019305826754
-0.024821302493
-0.030336838235
-0.035634891627
-0.040475050389
-0.044594031268
-0.047705679140
-0.049500966301
-0.049647991959
-0.047791981926
-0.043555288514
-0.036537390642
-0.026314894138
-0.012441532250
0.005551833642
0.028157213135
0.055889485748
0.089286399769
0.128908571092
0.175339482210
0.229185481603
0.291075783853
0.361662470885
0.441620494753
0.531647682190
0.009536743164
0.009001931968
0.007332493933
0.004563001418
0.000750904551
-0.004023472633
-0.009656934878
-0.016023417285
-0.022973985998
-0.030336838235
-0.037917301908
-0.045497835003
-0.052838024881
-0.059674587571
-0.065721367147
-0.070669335207
-0.074186590490
-0.075918358644
-0.075486992146
-0.072491970383
-0.066509899879
-0.057094514689
-0.043776676905
-0.026064377295
-0.003442735996
0.024625996779
0.058702440124
0.099370082056
0.147235279553
0.202927259231
0.267098118934
0.340422830406
0.423599243164
0.013962745667
0.013308995279
0.011280273258
0.007911134236
0.003259012664
-0.002595780507
-0.009550060333
-0.017477769594
-0.026229979797
-0.035634891627
-0.045497835003
-0.055601268869
-0.065704780838
-0.075545086787
-0.084836030452
-0.093268583074
-0.100510843138
-0.106208036199
-0.109982514826
-0.111433758661
-0.110138374586
-0.105650096992
-0.097499788126
-0.085195438499
-0.068222167294
-0.046042222717
-0.018094982206
0.016203047621
0.057458231415
0.106299806112
0.163379882634
0.229373448404
0.304978370667
0.019775390625
0.018991012862
0.016568435030
0.012542198189
0.006969724592
-0.000068685218
-0.008469854756
-0.018107733326
-0.028833397212
-0.040475050389
-0.052838024881
-0.065704780838
-0.078834906455
-0.091965117784
-0.104809258516
-0.117058299769
-0.128380339912
-0.138420604456
-0.146801446015
-0.153122344345
-0.156959906453
-0.157867866774
-0.155377087379
-0.148995558199
-0.138208397209
-0.122477850511
-0.101243292254
-0.073921224279
-0.039905275406
0.001433799753
0.050748122531
0.108712692550
0.176025390625
0.027237892151
0.026311212328
0.023460219613
0.018719445035
0.012146301730
0.003821082330
-0.006153043233
-0.017650029454
-0.030520956536
-0.044594031268
-0.059674587571
-0.075545086787
-0.091965117784
-0.108671396935
-0.125377768043
-0.141775202228
-0.157531797832
-0.172292780353
-0.185680502417
-0.197294443809
-0.206711211532
-0.213484539910
-0.217145290694
-0.217201453141
-0.213138144034
-0.204417607577
-0.190479215106
-0.170739464543
-0.144591979518
-0.111407508089
-0.070533921011
-0.021296209547
0.037003517151
0.036636352539
0.035555705847
0.032241748566
0.026729004817
0.019074881415
0.009359665444
-0.002313477826
-0.015818506644
-0.031006504109
-0.047705679140
-0.065721367147
-0.084836030452
-0.104809258516
-0.125377768043
-0.146255402989
-0.167133134532
-0.187679061026
-0.207538407969
-0.226333527988
-0.243663900854
-0.259106133514
-0.272213960137
-0.282518242145
-0.289526968200
-0.292725254106
-0.291575342579
-0.285516602823
-0.273965529866
-0.256315743583
-0.231937987369
-0.200180126433
-0.160367145715
-0.111801147461
0.048279762268
0.047033490647
0.043222025557
0.036879887074
0.028064478290
0.016856083002
0.003357863695
-0.012304140149
-0.029981013400
-0.049500966301
-0.070669335207
-0.093268583074
-0.117058299769
-0.141775202228
-0.167133134532
-0.192823067912
-0.218513100747
-0.243848458537
-0.268451493906
-0.291921686602
-0.313835643517
-0.333747098697
-0.351186913329
-0.365663075673
-0.376660700897
-0.383642030771
-0.386046433177
-0.383290401370
-0.374767552958
-0.359848628549
-0.337881490067
-0.308191118727
-0.270079612732
0.062500000000
0.061076449326
0.056732936949
0.049503981613
0.039446985181
0.026642230362
0.011192878713
-0.006775031042
-0.027112584369
-0.049647991959
-0.074186590490
-0.100510843138
-0.128380339912
-0.157531797832
-0.187679061026
-0.218513100747
-0.249702015381
-0.280891030434
-0.311702498524
-0.341735899393
-0.370567839910
-0.397752054073
-0.422819402987
-0.445277874769
-0.464612584366
-0.480285773227
-0.491736808784
-0.498382183698
-0.499615514817
-0.494807541822
-0.483306125549
-0.464436245986
-0.437500000000
0.079651832581
0.078039350022
0.073129252120
0.064956058949
0.053577173603
0.039072879877
0.021546340258
0.001123594227
-0.022046443087
-0.047791981926
-0.075918358644
-0.106208036199
-0.138420604456
-0.172292780353
-0.207538407969
-0.243848458537
-0.280891030434
-0.318311349161
-0.355731767343
-0.392751764726
-0.428947948204
-0.463874051821
-0.497060936766
-0.528016591298
-0.556226130584
-0.581151796396
-0.602232956614
-0.618886104495
-0.630504857645
-0.636459956674
-0.636099263504
-0.628747759352
-0.613707542419
0.100112915039
0.098299846472
0.092788623566
0.083613770443
0.070832693916
0.054525681069
0.034795897175
0.011769383981
-0.014404941608
-0.043555288514
-0.075486992146
-0.109982514826
-0.146801446015
-0.185680502417
-0.226333527988
-0.268451493906
-0.311702498524
-0.355731767343
-0.400161652987
-0.444591635228
-0.488598321013
-0.531735444511
-0.573533867144
-0.613501577574
-0.651123691606
-0.685862451953
-0.717157227823
-0.744424514241
-0.767057931082
-0.784428221743
-0.795883251433
-0.800748005090
-0.798324584961
0.124283790588
0.122258477953
0.116111586801
0.105877648160
0.091614075168
0.073401160456
0.051342073955
0.025562861172
-0.003787558098
-0.036537390642
-0.072491970383
-0.111433758661
-0.153122344345
-0.197294443809
-0.243663900854
-0.291921686602
-0.341735899393
-0.392751764726
-0.444591635228
-0.496854990682
-0.549118438093
-0.600935711784
-0.651837673505
-0.701332312514
-0.748904745595
-0.794017216951
-0.836109097917
-0.874596886417
-0.908874206080
-0.938311804963
-0.962257553823
-0.980036443922
-0.990950584412
0.152587890625
0.150338669112
0.143521560031
0.132171104439
0.116344724593
0.096122721032
0.071608270245
0.042927422925
0.010229102790
-0.026314894138
-0.066509899879
-0.110138374586
-0.156959906453
-0.206711211532
-0.259106133514
-0.313835643517
-0.370567839910
-0.428947948204
-0.488598321013
-0.549118438093
-0.610084906451
-0.671051460522
-0.731548962377
-0.791085401948
-0.849145897207
-0.905192694260
-0.958665167253
-1.008979818028
-1.055530275405
-1.097687293997
-1.134798752468
-1.166189651200
-1.191162109375
0.185471534729
0.182986729654
0.175464843571
0.162940431112
0.145470926727
0.123136641370
0.096040759981
0.064309339782
0.028091309268
-0.012441532250
-0.057094514689
-0.105650096992
-0.157867866774
-0.213484539910
-0.272213960137
-0.333747098697
-0.397752054073
-0.463874051821
-0.531735444511
-0.600935711784
-0.671051460522
-0.741636425115
-0.812221467811
-0.882314579123
-0.951400878230
-1.018942613340
-1.084379161892
-1.147127030503
-1.206579854521
-1.262108397012
-1.313060547053
-1.358761317220
-1.398512840271
0.223403930664
0.220671853843
0.212410618933
0.198654798293
0.179461842052
0.154912074243
0.125108690123
0.090177754591
0.050268201504
0.005551833642
-0.043776676905
-0.097499788126
-0.155377087379
-0.217145290694
-0.282518242145
-0.351186913329
-0.422819402987
-0.497060936766
-0.573533867144
-0.651837673505
-0.731548962377
-0.812221467811
-0.893386051903
-0.974550705418
-1.055200548494
-1.134797831344
-1.212781934874
-1.288569371067
-1.361553782946
-1.431105943893
-1.496573756066
-1.557282247719
-1.612533569336
0.266877174377
0.263886119753
0.254850947448
0.239806252602
0.218809505040
0.191941044709
0.159304078904
0.121024681019
0.077251790435
0.028157213135
-0.026064377295
-0.085195438499
-0.148995558199
-0.217201453141
-0.289526968200
-0.365663075673
-0.445277874769
-0.528016591298
-0.613501577574
-0.701332312514
-0.791085401948
-0.882314579123
-0.974550705418
-1.067301771238
-1.160052897063
-1.252266334604
-1.343381467969
-1.432814814664
-1.519960026208
-1.604187888022
-1.684846318177
-1.761260364622
-1.832732200623
0.316406250000
0.313144488126
0.303300768215
0.286909714561
0.264028821386
0.234738447467
0.199141813513
0.157365001655
0.109556956306
0.055889485748
-0.003442735996
-0.068222167294
-0.138208397209
-0.213138144034
-0.292725254106
-0.376660700897
-0.464612584366
-0.556226130584
-0.651123691606
-0.748904745595
-0.849145897207
-0.951400878230
-1.055200548494
-1.160052897063
-1.265443043692
-1.370833240530
-1.475662873985
-1.579348466594
-1.681283678613
-1.780839308875
-1.877363294285
-1.970180707186
-2.058593750000
0.372529029846
0.368984800618
0.358297895019
0.340502974818
0.315657564130
0.283842043315
0.245159647127
0.199736465692
0.147721446968
0.089286399769
0.024625996779
-0.046042222717
-0.122477850511
-0.204417607577
-0.291575342579
-0.383642030771
-0.480285773227
-0.581151796396
-0.685862451953
-0.794017216951
-0.905192694260
-1.018942613340
-1.134797831344
-1.252266334604
-1.370833240530
-1.489960799931
-1.609088399746
-1.727632566059
-1.844986967119
-1.960522415806
-2.073586870606
-2.183505433757
-2.289580345154
0.435806274414
0.431967776991
0.420403011568
0.401146688576
0.374256368244
0.339812454474
0.297918195204
0.248699686190
0.192305876013
0.128908571092
0.058702440124
-0.018094982206
-0.101243292254
-0.190479215106
-0.285516602823
-0.386046433177
-0.491736808784
-0.602232956614
-0.717157227823
-0.836109097917
-0.958665167253
-1.084379161892
-1.212781934874
-1.343381467969
-1.475662873985
-1.609088399746
-1.743097429794
-1.877106490837
-2.010509256755
-2.142676553611
-2.272956363431
-2.400673824571
-2.525131225586
0.506821632385
0.502677010428
0.490199663919
0.469424367285
0.440408723096
0.403233158536
0.358000931037
0.304838137065
0.243893720905
0.175339482210
0.099370082056
0.016203047621
-0.073921224279
-0.170739464543
-0.273965529866
-0.383290401370
-0.498382183698
-0.618886104495
-0.744424514241
-0.874596886417
-1.008979818028
-1.147127030503
-1.288569371067
-1.432814814664
-1.579348466594
-1.727632566059
-1.877106490837
-2.027186763338
-2.177267058153
-2.326718210840
-2.474888226706
-2.621102286447
-2.764662742615
0.586181640625
0.581718959136
0.568294247925
0.545942366065
0.514720962090
0.474710480909
0.426014180744
0.368758150068
0.303091321386
0.229185481603
0.147235279553
0.057458231415
-0.039905275406
-0.144591979518
-0.256315743583
-0.374767552958
-0.499615514817
-0.630504857645
-0.767057931082
-0.908874206080
-1.055530275405
-1.206579854521
-1.361553782946
-1.519960026208
-1.681283678613
-1.844986967119
-2.010509256755
-2.177267058153
-2.344654037909
-2.512041032372
-2.678776064574
-2.844184361176
-3.007568359375
0.674515724182
0.669722930032
0.655315987587
0.631329864651
0.597822248878
0.554873586035
0.502587118264
0.441088912318
0.370527878624
0.291075783853
0.202927259231
0.106299806112
0.001433799753
-0.111407508089
-0.231937987369
-0.359848628549
-0.494807541822
-0.636459956674
-0.784428221743
-0.938311804963
-1.097687293997
-1.262108397012
-1.431105943893
-1.604187888022
-1.780839308875
-1.960522415806
-2.142676553611
-2.326718210840
-2.512041032372
-2.698015838474
-2.883990653038
-3.069290741843
-3.253218650818
0.772476196289
0.767341043510
0.751916896366
0.726238839149
0.690364560425
0.644374468606
0.588371761568
0.522482465331
0.446855455715
0.361662470885
0.267098118934
0.163379882634
0.050748122531
-0.070533921011
-0.200180126433
-0.337881490067
-0.483306125549
-0.636099263504
-0.795883251433
-0.962257553823
-1.134798752468
-1.313060547053
-1.496573756066
-1.684846318177
-1.877363294285
-2.073586870606
-2.272956363431
-2.474888226706
-2.678776064574
-2.883990653038
-3.089879978634
-3.295769308053
-3.500961303711
0.880738258362
0.875248147512
0.858771707572
0.831344023782
0.793022670073
0.743887947928
0.684042972304
0.613613706868
0.532748980314
0.441620494753
0.340422830406
0.229373448404
0.108712692550
-0.021296209547
-0.160367145715
-0.308191118727
-0.464436245986
-0.628747759352
-0.800748005090
-0.980036443922
-1.166189651200
-1.358761317220
-1.557282247719
-1.761260364622
-1.970180707186
-2.183505433757
-2.400673824571
-2.621102286447
-2.844184361176
-3.069290741843
-3.295769308053
-3.522945211863
-3.750121116638
1.000000000000
0.994141578674
0.976577758789
0.947342872620
0.906494140625
0.854111671448
0.790298461914
0.715180397034
0.628906250000
0.531647682190
0.423599243164
0.304978370667
0.176025390625
0.037003517151
-0.111801147461
-0.270079612732
-0.437500000000
-0.613707542419
-0.798324584961
-0.990950584412
-1.191162109375
-1.398512840271
-1.612533569336
-1.832732200623
-2.058593750000
-2.289580345154
-2.525131225586
-2.764662742615
-3.007568359375
-3.253218650818
-3.500961303711
-3.750121116638
-4.000000000000
