# vtk DataFile Version 2.0
TITLE = "Quad data"
ASCII
DATASET STRUCTURED_GRID
DIMENSIONS 201 201 1
POINTS 40401 FLOAT
-1.000000 -1.000000 0.000000
-1.000000 -0.990000 0.000000
-1.000000 -0.980000 0.000000
-1.000000 -0.970000 0.000000
-1.000000 -0.960000 0.000000
-1.000000 -0.950000 0.000000
-1.000000 -0.940000 0.000000
-1.000000 -0.930000 0.000000
-1.000000 -0.920000 0.000000
-1.000000 -0.910000 0.000000
-1.000000 -0.900000 0.000000
-1.000000 -0.890000 0.000000
-1.000000 -0.880000 0.000000
-1.000000 -0.870000 0.000000
-1.000000 -0.860000 0.000000
-1.000000 -0.850000 0.000000
-1.000000 -0.840000 0.000000
-1.000000 -0.830000 0.000000
-1.000000 -0.820000 0.000000
-1.000000 -0.810000 0.000000
-1.000000 -0.800000 0.000000
-1.000000 -0.790000 0.000000
-1.000000 -0.780000 0.000000
-1.000000 -0.770000 0.000000
-1.000000 -0.760000 0.000000
-1.000000 -0.750000 0.000000
-1.000000 -0.740000 0.000000
-1.000000 -0.730000 0.000000
-1.000000 -0.720000 0.000000
-1.000000 -0.710000 0.000000
-1.000000 -0.700000 0.000000
-1.000000 -0.690000 0.000000
-1.000000 -0.680000 0.000000
-1.000000 -0.670000 0.000000
-1.000000 -0.660000 0.000000
-1.000000 -0.650000 0.000000
-1.000000 -0.640000 0.000000
-1.000000 -0.630000 0.000000
-1.000000 -0.620000 0.000000
-1.000000 -0.610000 0.000000
-1.000000 -0.600000 0.000000
-1.000000 -0.590000 0.000000
-1.000000 -0.580000 0.000000
-1.000000 -0.570000 0.000000
-1.000000 -0.560000 0.000000
-1.000000 -0.550000 0.000000
-1.000000 -0.540000 0.000000
-1.000000 -0.530000 0.000000
-1.000000 -0.520000 0.000000
-1.000000 -0.510000 0.000000
-1.000000 -0.500000 0.000000
-1.000000 -0.490000 0.000000
-1.000000 -0.480000 0.000000
-1.000000 -0.470000 0.000000
-1.000000 -0.460000 0.000000
-1.000000 -0.450000 0.000000
-1.000000 -0.440000 0.000000
-1.000000 -0.430000 0.000000
-1.000000 -0.420000 0.000000
-1.000000 -0.410000 0.000000
-1.000000 -0.400000 0.000000
-1.000000 -0.390000 0.000000
-1.000000 -0.380000 0.000000
-1.000000 -0.370000 0.000000
-1.000000 -0.360000 0.000000
-1.000000 -0.350000 0.000000
-1.000000 -0.340000 0.000000
-1.000000 -0.330000 0.000000
-1.000000 -0.320000 0.000000
-1.000000 -0.310000 0.000000
-1.000000 -0.300000 0.000000
-1.000000 -0.290000 0.000000
-1.000000 -0.280000 0.000000
-1.000000 -0.270000 0.000000
-1.000000 -0.260000 0.000000
-1.000000 -0.250000 0.000000
-1.000000 -0.240000 0.000000
-1.000000 -0.230000 0.000000
-1.000000 -0.220000 0.000000
-1.000000 -0.210000 0.000000
-1.000000 -0.200000 0.000000
-1.000000 -0.190000 0.000000
-1.000000 -0.180000 0.000000
-1.000000 -0.170000 0.000000
-1.000000 -0.160000 0.000000
-1.000000 -0.150000 0.000000
-1.000000 -0.140000 0.000000
-1.000000 -0.130000 0.000000
-1.000000 -0.120000 0.000000
-1.000000 -0.110000 0.000000
-1.000000 -0.100000 0.000000
-1.000000 -0.090000 0.000000
-1.000000 -0.080000 0.000000
-1.000000 -0.070000 0.000000
-1.000000 -0.060000 0.000000
-1.000000 -0.050000 0.000000
-1.000000 -0.040000 0.000000
-1.000000 -0.030000 0.000000
-1.000000 -0.020000 0.000000
-1.000000 -0.010000 0.000000
-1.000000 0.000000 0.000000
-1.000000 0.010000 0.000000
-1.000000 0.020000 0.000000
-1.000000 0.030000 0.000000
-1.000000 0.040000 0.000000
-1.000000 0.050000 0.000000
-1.000000 0.060000 0.000000
-1.000000 0.070000 0.000000
-1.000000 0.080000 0.000000
-1.000000 0.090000 0.000000
-1.000000 0.100000 0.000000
-1.000000 0.110000 0.000000
-1.000000 0.120000 0.000000
-1.000000 0.130000 0.000000
-1.000000 0.140000 0.000000
-1.000000 0.150000 0.000000
-1.000000 0.160000 0.000000
-1.000000 0.170000 0.000000
-1.000000 0.180000 0.000000
-1.000000 0.190000 0.000000
-1.000000 0.200000 0.000000
-1.000000 0.210000 0.000000
-1.000000 0.220000 0.000000
-1.000000 0.230000 0.000000
-1.000000 0.240000 0.000000
-1.000000 0.250000 0.000000
-1.000000 0.260000 0.000000
-1.000000 0.270000 0.000000
-1.000000 0.280000 0.000000
-1.000000 0.290000 0.000000
-1.000000 0.300000 0.000000
-1.000000 0.310000 0.000000
-1.000000 0.320000 0.000000
-1.000000 0.330000 0.000000
-1.000000 0.340000 0.000000
-1.000000 0.350000 0.000000
-1.000000 0.360000 0.000000
-1.000000 0.370000 0.000000
-1.000000 0.380000 0.000000
-1.000000 0.390000 0.000000
-1.000000 0.400000 0.000000
-1.000000 0.410000 0.000000
-1.000000 0.420000 0.000000
-1.000000 0.430000 0.000000
-1.000000 0.440000 0.000000
-1.000000 0.450000 0.000000
-1.000000 0.460000 0.000000
-1.000000 0.470000 0.000000
-1.000000 0.480000 0.000000
-1.000000 0.490000 0.000000
-1.000000 0.500000 0.000000
-1.000000 0.510000 0.000000
-1.000000 0.520000 0.000000
-1.000000 0.530000 0.000000
-1.000000 0.540000 0.000000
-1.000000 0.550000 0.000000
-1.000000 0.560000 0.000000
-1.000000 0.570000 0.000000
-1.000000 0.580000 0.000000
-1.000000 0.590000 0.000000
-1.000000 0.600000 0.000000
-1.000000 0.610000 0.000000
-1.000000 0.620000 0.000000
-1.000000 0.630000 0.000000
-1.000000 0.640000 0.000000
-1.000000 0.650000 0.000000
-1.000000 0.660000 0.000000
-1.000000 0.670000 0.000000
-1.000000 0.680000 0.000000
-1.000000 0.690000 0.000000
-1.000000 0.700000 0.000000
-1.000000 0.710000 0.000000
-1.000000 0.720000 0.000000
-1.000000 0.730000 0.000000
-1.000000 0.740000 0.000000
-1.000000 0.750000 0.000000
-1.000000 0.760000 0.000000
-1.000000 0.770000 0.000000
-1.000000 0.780000 0.000000
-1.000000 0.790000 0.000000
-1.000000 0.800000 0.000000
-1.000000 0.810000 0.000000
-1.000000 0.820000 0.000000
-1.000000 0.830000 0.000000
-1.000000 0.840000 0.000000
-1.000000 0.850000 0.000000
-1.000000 0.860000 0.000000
-1.000000 0.870000 0.000000
-1.000000 0.880000 0.000000
-1.000000 0.890000 0.000000
-1.000000 0.900000 0.000000
-1.000000 0.910000 0.000000
-1.000000 0.920000 0.000000
-1.000000 0.930000 0.000000
-1.000000 0.940000 0.000000
-1.000000 0.950000 0.000000
-1.000000 0.960000 0.000000
-1.000000 0.970000 0.000000
-1.000000 0.980000 0.000000
-1.000000 0.990000 0.000000
-1.000000 1.000000 0.000000
-0.990000 -1.000000 0.000000
-0.990000 -0.990000 0.000000
-0.990000 -0.980000 0.000000
-0.990000 -0.970000 0.000000
-0.990000 -0.960000 0.000000
-0.990000 -0.950000 0.000000
-0.990000 -0.940000 0.000000
-0.990000 -0.930000 0.000000
-0.990000 -0.920000 0.000000
-0.990000 -0.910000 0.000000
-0.990000 -0.900000 0.000000
-0.990000 -0.890000 0.000000
-0.990000 -0.880000 0.000000
-0.990000 -0.870000 0.000000
-0.990000 -0.860000 0.000000
-0.990000 -0.850000 0.000000
-0.990000 -0.840000 0.000000
-0.990000 -0.830000 0.000000
-0.990000 -0.820000 0.000000
-0.990000 -0.810000 0.000000
-0.990000 -0.800000 0.000000
-0.990000 -0.790000 0.000000
-0.990000 -0.780000 0.000000
-0.990000 -0.770000 0.000000
-0.990000 -0.760000 0.000000
-0.990000 -0.750000 0.000000
-0.990000 -0.740000 0.000000
-0.990000 -0.730000 0.000000
-0.990000 -0.720000 0.000000
-0.990000 -0.710000 0.000000
-0.990000 -0.700000 0.000000
-0.990000 -0.690000 0.000000
-0.990000 -0.680000 0.000000
-0.990000 -0.670000 0.000000
-0.990000 -0.660000 0.000000
-0.990000 -0.650000 0.000000
-0.990000 -0.640000 0.000000
-0.990000 -0.630000 0.000000
-0.990000 -0.620000 0.000000
-0.990000 -0.610000 0.000000
-0.990000 -0.600000 0.000000
-0.990000 -0.590000 0.000000
-0.990000 -0.580000 0.000000
-0.990000 -0.570000 0.000000
-0.990000 -0.560000 0.000000
-0.990000 -0.550000 0.000000
-0.990000 -0.540000 0.000000
-0.990000 -0.530000 0.000000
-0.990000 -0.520000 0.000000
-0.990000 -0.510000 0.000000
-0.990000 -0.500000 0.000000
-0.990000 -0.490000 0.000000
-0.990000 -0.480000 0.000000
-0.990000 -0.470000 0.000000
-0.990000 -0.460000 0.000000
-0.990000 -0.450000 0.000000
-0.990000 -0.440000 0.000000
-0.990000 -0.430000 0.000000
-0.990000 -0.420000 0.000000
-0.990000 -0.410000 0.000000
-0.990000 -0.400000 0.000000
-0.990000 -0.390000 0.000000
-0.990000 -0.380000 0.000000
-0.990000 -0.370000 0.000000
-0.990000 -0.360000 0.000000
-0.990000 -0.350000 0.000000
-0.990000 -0.340000 0.000000
-0.990000 -0.330000 0.000000
-0.990000 -0.320000 0.000000
-0.990000 -0.310000 0.000000
-0.990000 -0.300000 0.000000
-0.990000 -0.290000 0.000000
-0.990000 -0.280000 0.000000
-0.990000 -0.270000 0.000000
-0.990000 -0.260000 0.000000
-0.990000 -0.250000 0.000000
-0.990000 -0.240000 0.000000
-0.990000 -0.230000 0.000000
-0.990000 -0.220000 0.000000
-0.990000 -0.210000 0.000000
-0.990000 -0.200000 0.000000
-0.990000 -0.190000 0.000000
-0.990000 -0.180000 0.000000
-0.990000 -0.170000 0.000000
-0.990000 -0.160000 0.000000
-0.990000 -0.150000 0.000000
-0.990000 -0.140000 0.000000
-0.990000 -0.130000 0.000000
-0.990000 -0.120000 0.000000
-0.990000 -0.110000 0.000000
-0.990000 -0.100000 0.000000
-0.990000 -0.090000 0.000000
-0.990000 -0.080000 0.000000
-0.990000 -0.070000 0.000000
-0.990000 -0.060000 0.000000
-0.990000 -0.050000 0.000000
-0.990000 -0.040000 0.000000
-0.990000 -0.030000 0.000000
-0.990000 -0.020000 0.000000
-0.990000 -0.010000 0.000000
-0.990000 0.000000 0.000000
-0.990000 0.010000 0.000000
-0.990000 0.020000 0.000000
-0.990000 0.030000 0.000000
-0.990000 0.040000 0.000000
-0.990000 0.050000 0.000000
-0.990000 0.060000 0.000000
-0.990000 0.070000 0.000000
-0.990000 0.080000 0.000000
-0.990000 0.090000 0.000000
-0.990000 0.100000 0.000000
-0.990000 0.110000 0.000000
-0.990000 0.120000 0.000000
-0.990000 0.130000 0.000000
-0.990000 0.140000 0.000000
-0.990000 0.150000 0.000000
-0.990000 0.160000 0.000000
-0.990000 0.170000 0.000000
-0.990000 0.180000 0.000000
-0.990000 0.190000 0.000000
-0.990000 0.200000 0.000000
-0.990000 0.210000 0.000000
-0.990000 0.220000 0.000000
-0.990000 0.230000 0.000000
-0.990000 0.240000 0.000000
-0.990000 0.250000 0.000000
-0.990000 0.260000 0.000000
-0.990000 0.270000 0.000000
-0.990000 0.280000 0.000000
-0.990000 0.290000 0.000000
-0.990000 0.300000 0.000000
-0.990000 0.310000 0.000000
-0.990000 0.320000 0.000000
-0.990000 0.330000 0.000000
-0.990000 0.340000 0.000000
-0.990000 0.350000 0.000000
-0.990000 0.360000 0.000000
-0.990000 0.370000 0.000000
-0.990000 0.380000 0.000000
-0.990000 0.390000 0.000000
-0.990000 0.400000 0.000000
-0.990000 0.410000 0.000000
-0.990000 0.420000 0.000000
-0.990000 0.430000 0.000000
[...]
POINT_DATA 40401
SCALARS phi FLOAT 1
LOOKUP_TABLE default
0.000000000000
0.000000000000
0.000000000000
0.000000000000
0.000000000000
0.000000000000
0.000000000000
0.000000000000
0.000000000000
0.000000000000
0.000000000000
0.000000000000
0.000000000000
0.000000000000
0.000000000000
0.000000000000
0.000000000000
0.000000000000
0.000000000000
0.000000000000
0.000000000000
0.000000000000
0.000000000000
0.000000000000
0.000000000000
0.000000000000
0.000000000000
0.000000000000
0.000000000000
0.000000000000
0.000000000000
0.000000000000
0.000000000000
0.000000000000
0.000000000000
0.000000000000
0.000000000000
0.000000000000
0.000000000000
0.000000000000
0.000000000000
0.000000000000
0.000000000000
0.000000000000
0.000000000000
0.000000000000
0.000000000000
0.000000000000
0.000000000000
0.000000000000
0.000000000000
0.000000000000
0.000000000000
0.000000000000
0.000000000000
0.000000000000
0.000000000000
0.000000000000
0.000000000000
0.000000000000
0.000000000000
0.000000000000
0.000000000000
0.000000000000
0.000000000000
0.000000000000
0.000000000000
0.000000000000
0.000000000000
0.000000000000
0.000000000000
0.000000000000
0.000000000000
0.000000000000
0.000000000000
0.000000000000
0.000000000000
0.000000000000
0.000000000000
0.000000000000
0.000000000000
0.000000000000
0.000000000000
0.000000000000
0.000000000000
0.000000000000
0.000000000000
0.000000000000
0.000000000000
0.000000000000
0.000000000000
0.000000000000
0.000000000000
0.000000000000
0.000000000000
0.000000000000
0.000000000000
0.000000000000
0.000000000000
0.000000000000
0.000000000000
0.000000000000
0.000000000000
0.000000000000
0.000000000000
0.000000000000
0.000000000000
0.000000000000
0.000000000000
0.000000000000
0.000000000000
0.000000000000
0.000000000000
0.000000000000
0.000000000000
0.000000000000
0.000000000000
0.000000000000
0.000000000000
0.000000000000
0.000000000000
0.000000000000
0.000000000000
0.000000000000
0.000000000000
0.000000000000
0.000000000000
0.000000000000
0.000000000000
0.000000000000
0.000000000000
0.000000000000
0.000000000000
0.000000000000
0.000000000000
0.000000000000
0.000000000000
0.000000000000
0.000000000000
0.000000000000
0.000000000000
0.000000000000
0.000000000000
0.000000000000
0.000000000000
0.000000000000
0.000000000000
0.000000000000
0.000000000000
0.000000000000
0.000000000000
0.000000000000
0.000000000000
0.000000000000
0.000000000000
0.000000000000
0.000000000000
0.000000000000
0.000000000000
0.000000000000
0.000000000000
0.000000000000
0.000000000000
0.000000000000
0.000000000000
0.000000000000
0.000000000000
0.000000000000
0.000000000000
0.000000000000
0.000000000000
0.000000000000
0.000000000000
0.000000000000
0.000000000000
0.000000000000
0.000000000000
0.000000000000
0.000000000000
0.000000000000
0.000000000000
0.000000000000
0.000000000000
0.000000000000
0.000000000000
0.000000000000
0.000000000000
0.000000000000
0.000000000000
0.000000000000
0.000000000000
0.000000000000
0.000000000000
0.000000000000
0.000000000000
0.000000000000
0.000000000000
0.000000000000
0.000000000000
0.000000000000
0.000000000000
0.000000000000
0.000007223999
0.000009281537
-0.000004687421
-0.000009058854
-0.000012350776
-0.000013603290
-0.000004537034
0.000015693723
0.000028895737
0.000030535302
0.000021298666
-0.000010592477
-0.000044168387
-0.000056741220
-0.000069364294
-0.000026577883
0.000019135592
0.000076709550
0.000116809744
0.000128508806
0.000070804121
0.000030673868
-0.000112720733
-0.000140661888
-0.000247317165
-0.000194359046
-0.000169898282
-0.000030433179
0.000090373683
0.000237398374
0.000334222176
0.000383971692
0.000357433964
0.000263637531
0.000107982149
-0.000086916341
-0.000292415434
-0.000488974765
-0.000642878514
-0.000746937529
-0.000781109025
-0.000751535734
-0.000654815757
-0.000508889852
-0.000320511297
-0.000111064970
0.000107925052
0.000320437856
0.000516349580
0.000686167821
0.000826050413
0.000931822458
0.001004509335
0.001045803814
0.001057903713
0.001046564700
0.001014717959
0.000967830227
0.000910223674
0.000845296025
0.000777027968
0.000708310974
0.000640641334
0.000577287370
0.000517857568
0.000464560524
0.000417377933
0.000376167543
0.000342069579
0.000313534903
0.000291514784
0.000275164116
0.000263798074
0.000258213147
0.000256263981
0.000259425046
0.000265555329
0.000275203821
0.000287478793
0.000301298508
0.000317055932
0.000332604910
0.000348666852
0.000363117686
0.000375971494
0.000385803214
0.000391554070
0.000392418229
0.000386713983
0.000373738632
0.000352107371
0.000320867830
0.000279854245
0.000228109561
0.000167297156
0.000097318049
0.000021834086
-0.000057334453
-0.000134883283
-0.000206533199
-0.000266388868
-0.000308443981
-0.000328148312
-0.000320139276
-0.000283901559
-0.000218204463
-0.000129079024
-0.000022272312
0.000089232272
0.000193177895
0.000273525859
0.000317338348
0.000314186056
0.000260467331
0.000161041931
0.000029546340
-0.000111503352
-0.000234816407
-0.000313010209
-0.000324396166
-0.000261767936
-0.000132651559
0.000033055132
0.000196732478
0.000308597458
0.000335699064
0.000258256624
0.000098015328
-0.000103214301
-0.000272550915
-0.000351707122
-0.000298031295
-0.000128666653
0.000101167754
0.000292578979
0.000363956065
0.000269645557
0.000048424468
-0.000203796695
-0.000356992278
-0.000329186652
-0.000122064380
0.000155167173
0.000349089397
0.000338585823
0.000122062282
-0.000174985727
-0.000364885237
-0.000318835714
-0.000062524621
0.000231947103
0.000350507032
0.000201386738
-0.000117040164
-0.000362719814
-0.000345520848
-0.000069333714
0.000237595691
0.000313950695
0.000076698077
-0.000271546830
-0.000408067254
-0.000177149829
0.000230674572
0.000426181122
0.000207113089
-0.000196892655
-0.000314866032
0.000045256579
0.000533362633
0.000632406319
0.000331132749
0.000221896363
0.000736399004
0.001440726600
0.001465980423
0.000691994326
0.000000016206
0.000039861388
0.000279744051
-0.000046583539
-0.000505166564
-0.000101507222
0.000823821983
0.000850232040
-0.000143407923
-0.000650395483
-0.000149404954
0.000110186721
-0.000246263076
0.000018515216
0.000805873059
0.000375740644
-0.000911371062
-0.000721718907
0.000622804506
0.000661136154
-0.000268767346
-0.000256703167
0.000000000000
0.000000000000
0.000009854368
-0.000018496059
-0.000023168644
-0.000011918652
-0.000003277336
0.000020643776
0.000043609199
0.000045626642
0.000017098767
-0.000025324404
-0.000072281022
-0.000100946922
-0.000070216912
-0.000018269915
0.000073159148
0.000159314151
0.000183134482
0.000152973057
0.000050698301
-0.000108637671
-0.000234970415
-0.000340132658
-0.000329762143
-0.000214937506
-0.000040791877
0.000222686887
0.000410769545
0.000580124354
0.000581114691
0.000490457021
0.000244904591
-0.000056633463
-0.000407239515
-0.000706722743
-0.000937622263
-0.001026252774
-0.000984976468
-0.000791416513
-0.000482388060
-0.000084540004
0.000357102123
0.000799549216
0.001203908903
0.001535838187
0.001779011105
0.001914494337
0.001950214994
0.001885386103
0.001739137207
0.001524167317
0.001262898720
0.000968841972
0.000665221715
0.000360039763
0.000070802231
-0.000197246006
-0.000436860342
-0.000644733811
-0.000819611566
-0.000963363500
-0.001074887543
-0.001160780625
-0.001220407733
-0.001259748238
-0.001281538605
-0.001287948415
-0.001284003153
-0.001270407364
-0.001250089391
-0.001225837394
-0.001196296839
-0.001166258069
-0.001132364941
-0.001098206275
-0.001062119161
-0.001024065031
-0.000985257753
-0.000942746933
-0.000898639025
-0.000849889514
-0.000796738315
-0.000738361572
-0.000672158014
-0.000599743775
-0.000517127794
-0.000426857966
-0.000326251242
-0.000217075216
-0.000100236455
0.000023865213
0.000149895223
0.000277974331
0.000399088286
0.000512310323
0.000606928464
0.000679899425
0.000721642981
0.000727511783
0.000692449699
0.000612682958
0.000491170236
0.000328716235
0.000138758657
-0.000070416277
-0.000275451810
-0.000461373034
-0.000600704045
-0.000678558506
-0.000674921081
-0.000586920275
-0.000415642676
-0.000181058669
0.000088029505
0.000349885738
0.000559168097
0.000673681330
0.000662835980
0.000519334604
0.000261405736
-0.000061522593
-0.000380478484
-0.000615326912
-0.000700068782
-0.000598425703
-0.000325516711
0.000052908536
0.000427189562
0.000677940600
0.000710508081
0.000498789472
0.000100882761
-0.000344187954
-0.000665553541
-0.000721806020
-0.000472221983
-0.000005861652
0.000478060232
0.000752201470
0.000671572446
0.000255803881
-0.000293293350
-0.000689807614
-0.000701062101
-0.000307370176
0.000284502092
0.000717678823
0.000725124968
0.000278547628
-0.000333944839
-0.000712356491
-0.000576602763
-0.000015015547
0.000583156693
0.000762318311
0.000372341911
-0.000307112079
-0.000738366002
-0.000556187248
0.000102397634
0.000667935328
0.000593669606
-0.000112046040
-0.000835069974
-0.000866844425
-0.000143383987
0.000603201147
0.000531560656
-0.000349687221
-0.001069867747
-0.000769534637
0.000177225565
0.000474400787
-0.000423915145
-0.001393010325
-0.000975417368
0.000530101537
0.001269649155
0.000432687757
-0.000497051296
-0.000043346534
0.000797960093
0.000189232562
-0.001176414501
-0.000923805371
0.000833797417
0.001363626428
0.000011617621
-0.000704855483
0.000089631946
0.000165592418
-0.000840509774
-0.000366252433
0.001344446961
0.000925031462
-0.001177892698
-0.001109068619
0.000671845197
0.000717356484
-0.000198947920
0.000000000000
0.000000000000
-0.000020767046
-0.000029299668
0.000008390289
0.000021635261
0.000043336101
0.000048364023
0.000014575027
-0.000035437832
-0.000088994203
-0.000104482689
-0.000071558618
0.000017970795
0.000118014076
0.000195533591
0.000203328979
0.000118279335
-0.000044825756
-0.000221555388
-0.000362817540
-0.000385999327
-0.000287288778
-0.000049048305
0.000228881476
0.000516881593
0.000659270392
0.000686395331
0.000477388959
0.000160185629
-0.000278233742
-0.000688018523
-0.001016800747
-0.001164602079
-0.001111606801
-0.000841620503
-0.000407208007
0.000148368285
0.000719471222
0.001259138354
0.001667744418
0.001923620341
0.001982041682
0.001856995675
0.001554102504
0.001121121366
0.000589000752
0.000012668009
-0.000567752133
-0.001114679489
-0.001596678733
-0.001994229289
-0.002297090086
-0.002500245123
-0.002607689857
-0.002630543860
-0.002575510197
-0.002462927971
-0.002301814017
-0.002108571041
-0.001896048924
-0.001673469013
-0.001451104323
-0.001237300568
-0.001033721319
-0.000850112066
-0.000682990272
-0.000538342755
-0.000415000170
-0.000311678544
-0.000231002748
-0.000168294374
-0.000125156160
-0.000099983832
-0.000089649984
-0.000097297324
-0.000117027769
-0.000152607414
-0.000200416171
-0.000259944664
-0.000332638387
-0.000412741499
-0.000504860340
-0.000601183287
-0.000704735666
-0.000809805720
-0.000913869534
-0.001015283603
-0.001105154671
-0.001184862664
-0.001241524613
-0.001276892552
-0.001278212687
-0.001245528820
-0.001170484892
-0.001051441913
-0.000887925494
-0.000678951668
-0.000434208902
-0.000156867964
0.000132704938
0.000424689819
0.000690485500
0.000914672693
0.001067301633
0.001133708018
0.001094269522
0.000945961743
0.000693042753
0.000354519633
-0.000033511698
-0.000429237587
-0.000772397823
-0.001015979795
-0.001104234709
-0.001020026634
-0.000752028775
-0.000345919199
0.000143546903
0.000611815373
0.000968898890
0.001114773218
0.001008774608
0.000647813015
0.000114378017
-0.000468255201
-0.000931281789
-0.001135606640
-0.000992598616
-0.000529801660
0.000125933171
0.000751625267
0.001123662212
0.001076636790
0.000609514552
-0.000122086527
-0.000815059122
-0.001173048644
-0.001003358909
-0.000368606363
0.000458928741
0.001060331930
0.001125303616
0.000581254026
-0.000286161907
-0.001009916601
-0.001149502348
-0.000607849235
0.000315173432
0.001041188073
0.001095563039
0.000417209639
-0.000549685710
-0.001125197756
-0.000873590420
0.000064285991
0.000996487171
0.001198196235
0.000462279312
-0.000628996096
-0.001144975785
-0.000561751343
0.000666051629
0.001417300254
0.000906227446
-0.000452843931
-0.001297564816
-0.000686642619
0.000776062880
0.001413666808
0.000394466923
-0.001093162760
-0.001081089811
0.000646951057
0.001999077187
0.001187854203
-0.000714391967
-0.001061341461
0.000559476519
0.001566623660
0.000279631305
-0.001294304029
-0.000563839670
0.001264068346
0.001030327673
-0.000939096508
-0.001255895476
0.000552498958
0.001206580766
-0.000223380949
-0.000737674479
0.000508869265
0.000588378545
-0.000901281375
-0.000753720808
0.001019892959
0.000927182337
-0.000766357240
-0.000768828160
0.000373439286
0.000292819126
0.000000000000
0.000000000000
-0.000023321510
0.000030089695
0.000044858741
0.000036097279
0.000022189224
-0.000042547865
-0.000085498158
-0.000099496300
-0.000062758598
0.000037940130
0.000142477575
0.000201565029
0.000186927116
0.000060363248
-0.000124238025
-0.000300013708
-0.000405812478
-0.000340078442
-0.000144817929
0.000159880266
0.000476848027
0.000678289834
0.000697146418
0.000502832951
0.000097255770
-0.000358520992
-0.000845993030
-0.001119912399
-0.001210128246
-0.000991793649
-0.000547779827
0.000069828756
0.000740515980
0.001343539156
0.001778988293
0.001969589571
0.001885520963
0.001548259842
0.000988932699
0.000302468157
-0.000446627860
-0.001160789881
-0.001779771371
-0.002240000526
-0.002523900804
-0.002605002218
-0.002507215774
-0.002241568305
-0.001846492727
-0.001355716820
-0.000810095226
-0.000238940703
0.000319001157
0.000847942197
0.001324388524
0.001738221489
0.002086374964
0.002363965851
0.002575950678
0.002729159517
0.002825595859
0.002880048620
0.002894907418
0.002880775628
0.002846499766
0.002794259481
0.002735374595
0.002670764741
0.002605122751
0.002544633175
0.002485282126
0.002435723580
0.002390149579
0.002351942540
0.002320693344
0.002291120864
0.002268145015
0.002241954570
0.002216529673
0.002184637493
0.002143428377
0.002092121604
0.002020497929
0.001932642714
0.001815663580
0.001673933225
0.001498244022
0.001289841817
0.001047684290
0.000770248816
0.000465866624
0.000134136440
-0.000208714873
-0.000557000988
-0.000889622094
-0.001191974211
-0.001442223336
-0.001618768409
-0.001704797517
-0.001679359262
-0.001538467800
-0.001273617478
-0.000902108530
-0.000438987902
0.000072650868
0.000591537977
0.001055406624
0.001410274560
0.001597878769
0.001582629246
0.001346018140
0.000907078662
0.000315677548
-0.000341100999
-0.000954382711
-0.001407578484
-0.001598665610
-0.001470672188
-0.001022534123
-0.000336891407
0.000448644064
0.001137290916
0.001552685247
0.001550549142
0.001114027517
0.000329746015
-0.000569446071
-0.001313831717
-0.001629115847
-0.001390651286
-0.000638332869
0.000361433222
0.001241388230
0.001624962466
0.001332503799
0.000447463122
-0.000652205085
-0.001468866928
-0.001589786850
-0.000927309256
0.000213088486
0.001245105245
0.001598286544
0.001048882214
-0.000125727583
-0.001244751035
-0.001629427314
-0.001000497689
0.000263005625
0.001353378498
0.001497910280
0.000555409030
-0.000857856613
-0.001696530388
-0.001280499722
0.000144864726
0.001462455454
0.001528247707
0.000184561732
-0.001450745650
-0.001834019032
-0.000481482776
0.001394764085
0.001879858211
0.000374146153
-0.001553616886
-0.001681209593
0.000260655082
0.001968818147
0.001164277923
-0.001433214610
-0.002676859629
-0.000991649617
0.001355177960
0.001209338651
-0.000960710670
-0.001634260700
0.000429355888
0.002081923297
0.000607528089
-0.001821864113
-0.001519372093
0.000729212301
0.001155486668
-0.000494795256
-0.000863251249
0.000675791571
0.001036956385
-0.000511911386
-0.001036855963
0.000276693214
0.000817924418
-0.000127694504
-0.000464544736
0.000163037798
0.000233642475
-0.000167442913
-0.000099729653
0.000071428294
0.000000000000
0.000000000000
0.000028115417
0.000056288228
0.000003019273
-0.000022475296
-0.000079231477
-0.000097183282
-0.000042071646
0.000032801273
0.000141375586
0.000199763505
0.000146870764
0.000023514371
-0.000171183118
-0.000337655521
-0.000366859033
-0.000268686454
0.000012844001
0.000332552275
0.000599314426
0.000690606904
0.000547747489
0.000166295381
-0.000322332848
-0.000810646998
-0.001121588943
-0.001147326542
-0.000880772694
-0.000307153363
0.000373857263
0.001086388126
0.001619683203
0.001876263497
0.001800650904
0.001382865787
0.000713823247
-0.000115941155
-0.000956721898
-0.001696302802
-0.002230410668
-0.002488034511
-0.002460615361
-0.002150451016
-0.001613006403
-0.000911798448
-0.000125220629
0.000678204556
0.001420892374
0.002065219001
0.002563151363
0.002903109030
0.003078522091
0.003099124685
0.002978589824
0.002748680798
0.002423853827
0.002041656466
0.001619564208
0.001180940207
0.000746942668
0.000328101083
-0.000063471061
-0.000417094334
-0.000736135668
-0.001008766588
-0.001243038223
-0.001435787176
-0.001587648725
-0.001706417785
-0.001787417576
-0.001838977890
-0.001861633877
-0.001854019865
-0.001825750135
-0.001767150874
-0.001689744412
-0.001585460941
-0.001458189432
-0.001308748568
-0.001131242236
-0.000933780316
-0.000707277558
-0.000459813150
-0.000188315177
0.000104817086
0.000411642669
0.000734799770
0.001056911924
0.001379589873
0.001681963139
0.001957616077
0.002188738347
0.002357665253
0.002454474167
0.002453399110
0.002355479423
0.002136169746
0.001809938848
0.001366225263
0.000835071894
0.000231249619
-0.000399942687
-0.001014821379
-0.001560055436
-0.001973333680
-0.002211498216
-0.002219776709
-0.001992965015
-0.001518488734
-0.000854345703
-0.000053435145
0.000762978811
0.001491123286
0.001992597451
0.002178544205
0.001980419891
0.001414428994
0.000556946507
-0.000430955109
-0.001349214950
-0.001979074897
-0.002154337918
-0.001794380515
-0.000962710555
0.000151022938
0.001239923119
0.001985152624
0.002126123213
0.001588675454
0.000506690843
-0.000763486295
-0.001777106644
-0.002129180767
-0.001655267899
-0.000498186111
0.000880074725
0.001899587672
0.002076885414
0.001303775452
-0.000099117135
-0.001451599874
-0.002073395758
-0.001594816924
-0.000243737550
0.001275880162
0.002084226833
0.001685494796
0.000255386214
-0.001343327927
-0.002089597473
-0.001424199877
0.000272599958
0.001855372860
0.002138833392
0.000804370304
-0.001210807779
-0.002307939683
-0.001466742030
0.000725186823
0.002383473875
0.001884728678
-0.000463039386
-0.002454459132
-0.002017168915
0.000511908419
0.002422644896
0.001468995995
-0.001410539043
-0.002817104369
-0.000869853359
0.002248024716
0.002731238071
0.000041996301
-0.002201294921
-0.001065286330
0.001557414362
0.001628142845
-0.001008873542
-0.002309179644
-0.000242287226
0.002013015510
0.001099054437
-0.001292534489
-0.001512748426
0.000099920214
0.000488264105
-0.000529603720
-0.000502105852
0.000753893476
0.001020379663
-0.000129606015
-0.000937770325
-0.000566765342
0.000297188104
0.000789558954
0.000355868014
-0.000515518608
-0.000496096424
0.000197640667
0.000212340336
0.000000000000
0.000000000000
0.000045693550
-0.000024850340
-0.000068341098
-0.000070405655
-0.000060513223
0.000040465308
0.000123877107
0.000165872393
0.000140656215
-0.000010278905
-0.000181592434
-0.000315397910
-0.000337920211
-0.000161357097
0.000103667072
0.000432483507
0.000612648919
0.000602845517
0.000309198790
-0.000138648332
-0.000650702034
-0.001012576338
-0.001089810098
-0.000828365269
-0.000263233412
0.000467433628
0.001154687804
0.001644842459
0.001750542879
0.001481779642
0.000843345910
-0.000026590826
-0.000927958968
-0.001736974826
-0.002243213134
-0.002417592207
-0.002186980607
-0.001637496746
-0.000827767690
0.000099551322
0.001024230460
0.001834288966
0.002434574557
0.002773000749
0.002833024255
0.002620569896
0.002174577678
0.001552289713
0.000804291931
0.000003152712
-0.000802041368
-0.001563715655
-0.002243416387
-0.002819879591
-0.003283390165
-0.003622297917
-0.003853093762
-0.003975339714
-0.004008110065
-0.003968581838
-0.003867597024
-0.003727196788
-0.003560180799
-0.003375513115
-0.003193979558
-0.003012767478
-0.002849505775
-0.002704964652
-0.002581427169
-0.002489742086
-0.002420561148
-0.002385216891
-0.002377087607
-0.002396048799
-0.002445986991
-0.002515072186
-0.002611467342
-0.002722215557
-0.002847426394
-0.002982986098
-0.003114597585
-0.003247463401
-0.003357135129
-0.003449821964
-0.003501399887
-0.003509488971