# vtk DataFile Version 2.0
TITLE = "Quad data"
ASCII
DATASET STRUCTURED_GRID
DIMENSIONS 201 201 1
POINTS 40401 FLOAT
-1.000000 -1.000000 0.000000
-1.000000 -0.990000 0.000000
-1.000000 -0.980000 0.000000
-1.000000 -0.970000 0.000000
-1.000000 -0.960000 0.000000
-1.000000 -0.950000 0.000000
-1.000000 -0.940000 0.000000
-1.000000 -0.930000 0.000000
-1.000000 -0.920000 0.000000
-1.000000 -0.910000 0.000000
-1.000000 -0.900000 0.000000
-1.000000 -0.890000 0.000000
-1.000000 -0.880000 0.000000
-1.000000 -0.870000 0.000000
-1.000000 -0.860000 0.000000
-1.000000 -0.850000 0.000000
-1.000000 -0.840000 0.000000
-1.000000 -0.830000 0.000000
-1.000000 -0.820000 0.000000
-1.000000 -0.810000 0.000000
-1.000000 -0.800000 0.000000
-1.000000 -0.790000 0.000000
-1.000000 -0.780000 0.000000
-1.000000 -0.770000 0.000000
-1.000000 -0.760000 0.000000
-1.000000 -0.750000 0.000000
-1.000000 -0.740000 0.000000
-1.000000 -0.730000 0.000000
-1.000000 -0.720000 0.000000
-1.000000 -0.710000 0.000000
-1.000000 -0.700000 0.000000
-1.000000 -0.690000 0.000000
-1.000000 -0.680000 0.000000
-1.000000 -0.670000 0.000000
-1.000000 -0.660000 0.000000
-1.000000 -0.650000 0.000000
-1.000000 -0.640000 0.000000
-1.000000 -0.630000 0.000000
-1.000000 -0.620000 0.000000
-1.000000 -0.610000 0.000000
-1.000000 -0.600000 0.000000
-1.000000 -0.590000 0.000000
-1.000000 -0.580000 0.000000
-1.000000 -0.570000 0.000000
-1.000000 -0.560000 0.000000
-1.000000 -0.550000 0.000000
-1.000000 -0.540000 0.000000
-1.000000 -0.530000 0.000000
-1.000000 -0.520000 0.000000
-1.000000 -0.510000 0.000000
-1.000000 -0.500000 0.000000
-1.000000 -0.490000 0.000000
-1.000000 -0.480000 0.000000
-1.000000 -0.470000 0.000000
-1.000000 -0.460000 0.000000
-1.000000 -0.450000 0.000000
-1.000000 -0.440000 0.000000
-1.000000 -0.430000 0.000000
-1.000000 -0.420000 0.000000
-1.000000 -0.410000 0.000000
-1.000000 -0.400000 0.000000
-1.000000 -0.390000 0.000000
-1.000000 -0.380000 0.000000
-1.000000 -0.370000 0.000000
-1.000000 -0.360000 0.000000
-1.000000 -0.350000 0.000000
-1.000000 -0.340000 0.000000
-1.000000 -0.330000 0.000000
-1.000000 -0.320000 0.000000
-1.000000 -0.310000 0.000000
-1.000000 -0.300000 0.000000
-1.000000 -0.290000 0.000000
-1.000000 -0.280000 0.000000
-1.000000 -0.270000 0.000000
-1.000000 -0.260000 0.000000
-1.000000 -0.250000 0.000000
-1.000000 -0.240000 0.000000
-1.000000 -0.230000 0.000000
-1.000000 -0.220000 0.000000
-1.000000 -0.210000 0.000000
-1.000000 -0.200000 0.000000
-1.000000 -0.190000 0.000000
-1.000000 -0.180000 0.000000
-1.000000 -0.170000 0.000000
-1.000000 -0.160000 0.000000
-1.000000 -0.150000 0.000000
-1.000000 -0.140000 0.000000
-1.000000 -0.130000 0.000000
-1.000000 -0.120000 0.000000
-1.000000 -0.110000 0.000000
-1.000000 -0.100000 0.000000
-1.000000 -0.090000 0.000000
-1.000000 -0.080000 0.000000
-1.000000 -0.070000 0.000000
-1.000000 -0.060000 0.000000
-1.000000 -0.050000 0.000000
-1.000000 -0.040000 0.000000
-1.000000 -0.030000 0.000000
-1.000000 -0.020000 0.000000
-1.000000 -0.010000 0.000000
-1.000000 0.000000 0.000000
-1.000000 0.010000 0.000000
-1.000000 0.020000 0.000000
-1.000000 0.030000 0.000000
-1.000000 0.040000 0.000000
-1.000000 0.050000 0.000000
-1.000000 0.060000 0.000000
-1.000000 0.070000 0.000000
-1.000000 0.080000 0.000000
-1.000000 0.090000 0.000000
-1.000000 0.100000 0.000000
-1.000000 0.110000 0.000000
-1.000000 0.120000 0.000000
-1.000000 0.130000 0.000000
-1.000000 0.140000 0.000000
-1.000000 0.150000 0.000000
-1.000000 0.160000 0.000000
-1.000000 0.170000 0.000000
-1.000000 0.180000 0.000000
-1.000000 0.190000 0.000000
-1.000000 0.200000 0.000000
-1.000000 0.210000 0.000000
-1.000000 0.220000 0.000000
-1.000000 0.230000 0.000000
-1.000000 0.240000 0.000000
-1.000000 0.250000 0.000000
-1.000000 0.260000 0.000000
-1.000000 0.270000 0.000000
-1.000000 0.280000 0.000000
-1.000000 0.290000 0.000000
-1.000000 0.300000 0.000000
-1.000000 0.310000 0.000000
-1.000000 0.320000 0.000000
-1.000000 0.330000 0.000000
-1.000000 0.340000 0.000000
-1.000000 0.350000 0.000000
-1.000000 0.360000 0.000000
-1.000000 0.370000 0.000000
-1.000000 0.380000 0.000000
-1.000000 0.390000 0.000000
-1.000000 0.400000 0.000000
-1.000000 0.410000 0.000000
-1.000000 0.420000 0.000000
-1.000000 0.430000 0.000000
-1.000000 0.440000 0.000000
-1.000000 0.450000 0.000000
-1.000000 0.460000 0.000000
-1.000000 0.470000 0.000000
-1.000000 0.480000 0.000000
-1.000000 0.490000 0.000000
-1.000000 0.500000 0.000000
-1.000000 0.510000 0.000000
-1.000000 0.520000 0.000000
-1.000000 0.530000 0.000000
-1.000000 0.540000 0.000000
-1.000000 0.550000 0.000000
-1.000000 0.560000 0.000000
-1.000000 0.570000 0.000000
-1.000000 0.580000 0.000000
-1.000000 0.590000 0.000000
-1.000000 0.600000 0.000000
-1.000000 0.610000 0.000000
-1.000000 0.620000 0.000000
-1.000000 0.630000 0.000000
-1.000000 0.640000 0.000000
-1.000000 0.650000 0.000000
-1.000000 0.660000 0.000000
-1.000000 0.670000 0.000000
-1.000000 0.680000 0.000000
-1.000000 0.690000 0.000000
-1.000000 0.700000 0.000000
-1.000000 0.710000 0.000000
-1.000000 0.720000 0.000000
-1.000000 0.730000 0.000000
-1.000000 0.740000 0.000000
-1.000000 0.750000 0.000000
-1.000000 0.760000 0.000000
-1.000000 0.770000 0.000000
-1.000000 0.780000 0.000000
-1.000000 0.790000 0.000000
-1.000000 0.800000 0.000000
-1.000000 0.810000 0.000000
-1.000000 0.820000 0.000000
-1.000000 0.830000 0.000000
-1.000000 0.840000 0.000000
-1.000000 0.850000 0.000000
-1.000000 0.860000 0.000000
-1.000000 0.870000 0.000000
-1.000000 0.880000 0.000000
-1.000000 0.890000 0.000000
-1.000000 0.900000 0.000000
-1.000000 0.910000 0.000000
-1.000000 0.920000 0.000000
-1.000000 0.930000 0.000000
-1.000000 0.940000 0.000000
-1.000000 0.950000 0.000000
-1.000000 0.960000 0.000000
-1.000000 0.970000 0.000000
-1.000000 0.980000 0.000000
-1.000000 0.990000 0.000000
-1.000000 1.000000 0.000000
-0.990000 -1.000000 0.000000
-0.990000 -0.990000 0.000000
-0.990000 -0.980000 0.000000
-0.990000 -0.970000 0.000000
-0.990000 -0.960000 0.000000
-0.990000 -0.950000 0.000000
-0.990000 -0.940000 0.000000
-0.990000 -0.930000 0.000000
-0.990000 -0.920000 0.000000
-0.990000 -0.910000 0.000000
-0.990000 -0.900000 0.000000
-0.990000 -0.890000 0.000000
-0.990000 -0.880000 0.000000
-0.990000 -0.870000 0.000000
-0.990000 -0.860000 0.000000
-0.990000 -0.850000 0.000000
-0.990000 -0.840000 0.000000
-0.990000 -0.830000 0.000000
-0.990000 -0.820000 0.000000
-0.990000 -0.810000 0.000000
-0.990000 -0.800000 0.000000
-0.990000 -0.790000 0.000000
-0.990000 -0.780000 0.000000
-0.990000 -0.770000 0.000000
-0.990000 -0.760000 0.000000
-0.990000 -0.750000 0.000000
-0.990000 -0.740000 0.000000
-0.990000 -0.730000 0.000000
-0.990000 -0.720000 0.000000
-0.990000 -0.710000 0.000000
-0.990000 -0.700000 0.000000
-0.990000 -0.690000 0.000000
-0.990000 -0.680000 0.000000
-0.990000 -0.670000 0.000000
-0.990000 -0.660000 0.000000
-0.990000 -0.650000 0.000000
-0.990000 -0.640000 0.000000
-0.990000 -0.630000 0.000000
-0.990000 -0.620000 0.000000
-0.990000 -0.610000 0.000000
-0.990000 -0.600000 0.000000
-0.990000 -0.590000 0.000000
-0.990000 -0.580000 0.000000
-0.990000 -0.570000 0.000000
-0.990000 -0.560000 0.000000
-0.990000 -0.550000 0.000000
-0.990000 -0.540000 0.000000
-0.990000 -0.530000 0.000000
-0.990000 -0.520000 0.000000
-0.990000 -0.510000 0.000000
-0.990000 -0.500000 0.000000
-0.990000 -0.490000 0.000000
-0.990000 -0.480000 0.000000
-0.990000 -0.470000 0.000000
-0.990000 -0.460000 0.000000
-0.990000 -0.450000 0.000000
-0.990000 -0.440000 0.000000
-0.990000 -0.430000 0.000000
-0.990000 -0.420000 0.000000
-0.990000 -0.410000 0.000000
-0.990000 -0.400000 0.000000
-0.990000 -0.390000 0.000000
-0.990000 -0.380000 0.000000
-0.990000 -0.370000 0.000000
-0.990000 -0.360000 0.000000
-0.990000 -0.350000 0.000000
-0.990000 -0.340000 0.000000
-0.990000 -0.330000 0.000000
-0.990000 -0.320000 0.000000
-0.990000 -0.310000 0.000000
-0.990000 -0.300000 0.000000
-0.990000 -0.290000 0.000000
-0.990000 -0.280000 0.000000
-0.990000 -0.270000 0.000000
-0.990000 -0.260000 0.000000
-0.990000 -0.250000 0.000000
-0.990000 -0.240000 0.000000
-0.990000 -0.230000 0.000000
-0.990000 -0.220000 0.000000
-0.990000 -0.210000 0.000000
-0.990000 -0.200000 0.000000
-0.990000 -0.190000 0.000000
-0.990000 -0.180000 0.000000
-0.990000 -0.170000 0.000000
-0.990000 -0.160000 0.000000
-0.990000 -0.150000 0.000000
-0.990000 -0.140000 0.000000
-0.990000 -0.130000 0.000000
-0.990000 -0.120000 0.000000
-0.990000 -0.110000 0.000000
-0.990000 -0.100000 0.000000
-0.990000 -0.090000 0.000000
-0.990000 -0.080000 0.000000
-0.990000 -0.070000 0.000000
-0.990000 -0.060000 0.000000
-0.990000 -0.050000 0.000000
-0.990000 -0.040000 0.000000
-0.990000 -0.030000 0.000000
-0.990000 -0.020000 0.000000
-0.990000 -0.010000 0.000000
-0.990000 0.000000 0.000000
-0.990000 0.010000 0.000000
-0.990000 0.020000 0.000000
-0.990000 0.030000 0.000000
-0.990000 0.040000 0.000000
-0.990000 0.050000 0.000000
-0.990000 0.060000 0.000000
-0.990000 0.070000 0.000000
-0.990000 0.080000 0.000000
-0.990000 0.090000 0.000000
-0.990000 0.100000 0.000000
-0.990000 0.110000 0.000000
-0.990000 0.120000 0.000000
-0.990000 0.130000 0.000000
-0.990000 0.140000 0.000000
-0.990000 0.150000 0.000000
-0.990000 0.160000 0.000000
-0.990000 0.170000 0.000000
-0.990000 0.180000 0.000000
-0.990000 0.190000 0.000000
-0.990000 0.200000 0.000000
-0.990000 0.210000 0.000000
-0.990000 0.220000 0.000000
-0.990000 0.230000 0.000000
-0.990000 0.240000 0.000000
-0.990000 0.250000 0.000000
-0.990000 0.260000 0.000000
-0.990000 0.270000 0.000000
-0.990000 0.280000 0.000000
-0.990000 0.290000 0.000000
-0.990000 0.300000 0.000000
-0.990000 0.310000 0.000000
-0.990000 0.320000 0.000000
-0.990000 0.330000 0.000000
-0.990000 0.340000 0.000000
-0.990000 0.350000 0.000000
-0.990000 0.360000 0.000000
-0.990000 0.370000 0.000000
-0.990000 0.380000 0.000000
-0.990000 0.390000 0.000000
-0.990000 0.400000 0.000000
-0.990000 0.410000 0.000000
-0.990000 0.420000 0.000000
-0.990000 0.430000 0.000000
[...]
POINT_DATA 40401
SCALARS phi FLOAT 1
LOOKUP_TABLE default
0.000000000000
0.000000000000
0.000000000000
0.000000000000
0.000000000000
0.000000000000
0.000000000000
0.000000000000
0.000000000000
0.000000000000
0.000000000000
0.000000000000
0.000000000000
0.000000000000
0.000000000000
0.000000000000
0.000000000000
0.000000000000
0.000000000000
0.000000000000
0.000000000000
0.000000000000
0.000000000000
0.000000000000
0.000000000000
0.000000000000
0.000000000000
0.000000000000
0.000000000000
0.000000000000
0.000000000000
0.000000000000
0.000000000000
0.000000000000
0.000000000000
0.000000000000
0.000000000000
0.000000000000
0.000000000000
0.000000000000
0.000000000000
0.000000000000
0.000000000000
0.000000000000
0.000000000000
0.000000000000
0.000000000000
0.000000000000
0.000000000000
0.000000000000
0.000000000000
0.000000000000
0.000000000000
0.000000000000
0.000000000000
0.000000000000
0.000000000000
0.000000000000
0.000000000000
0.000000000000
0.000000000000
0.000000000000
0.000000000000
0.000000000000
0.000000000000
0.000000000000
0.000000000000
0.000000000000
0.000000000000
0.000000000000
0.000000000000
0.000000000000
0.000000000000
0.000000000000
0.000000000000
0.000000000000
0.000000000000
0.000000000000
0.000000000000
0.000000000000
0.000000000000
0.000000000000
0.000000000000
0.000000000000
0.000000000000
0.000000000000
0.000000000000
0.000000000000
0.000000000000
0.000000000000
0.000000000000
0.000000000000
0.000000000000
0.000000000000
0.000000000000
0.000000000000
0.000000000000
0.000000000000
0.000000000000
0.000000000000
0.000000000000
0.000000000000
0.000000000000
0.000000000000
0.000000000000
0.000000000000
0.000000000000
0.000000000000
0.000000000000
0.000000000000
0.000000000000
0.000000000000
0.000000000000
0.000000000000
0.000000000000
0.000000000000
0.000000000000
0.000000000000
0.000000000000
0.000000000000
0.000000000000
0.000000000000
0.000000000000
0.000000000000
0.000000000000
0.000000000000
0.000000000000
0.000000000000
0.000000000000
0.000000000000
0.000000000000
0.000000000000
0.000000000000
0.000000000000
0.000000000000
0.000000000000
0.000000000000
0.000000000000
0.000000000000
0.000000000000
0.000000000000
0.000000000000
0.000000000000
0.000000000000
0.000000000000
0.000000000000
0.000000000000
0.000000000000
0.000000000000
0.000000000000
0.000000000000
0.000000000000
0.000000000000
0.000000000000
0.000000000000
0.000000000000
0.000000000000
0.000000000000
0.000000000000
0.000000000000
0.000000000000
0.000000000000
0.000000000000
0.000000000000
0.000000000000
0.000000000000
0.000000000000
0.000000000000
0.000000000000
0.000000000000
0.000000000000
0.000000000000
0.000000000000
0.000000000000
0.000000000000
0.000000000000
0.000000000000
0.000000000000
0.000000000000
0.000000000000
0.000000000000
0.000000000000
0.000000000000
0.000000000000
0.000000000000
0.000000000000
0.000000000000
0.000000000000
0.000000000000
0.000000000000
0.000000000000
0.000000000000
0.000000000000
0.000000000000
0.000000000000
0.000000000000
0.000000000000
0.000000000000
0.000000000000
0.000000000000
0.000000000000
0.000000000000
1032542128423840626757337088.000000000000
5041514760912193461394866176.000000000000
-2538645202046736209945821184.000000000000
-7612035748752564333819461632.000000000000
2967310236197256445355360256.000000000000
7482193411730005704048640000.000000000000
-2558681620529461142686269440.000000000000
-5795065086261273944764973056.000000000000
1810808336775059014944817152.000000000000
3785220653016440247016226816.000000000000
-1102550976496032896100859904.000000000000
-2158576622830979445707243520.000000000000
593148673909295627829772288.000000000000
1097648990064435900721397760.000000000000
-286859685013441758231527424.000000000000
-504912633505781022558519296.000000000000
126248380501305570382315520.000000000000
212314173695788187270512640.000000000000
-51029586323577362312069120.000000000000
-82271188752146856979464192.000000000000
19080490722181816128634880.000000000000
29567110091469707003559936.000000000000
-6638473933344553417310208.000000000000
-9907116452835245751795712.000000000000
2159594241081216820314112.000000000000
3108704335061270371762176.000000000000
-659625443152814860664832.000000000000
-916942629726831910060032.000000000000
189843697573676183453696.000000000000
255067120106712529371136.000000000000
-51645105637780191444992.000000000000
-67106079352066882404352.000000000000
13316917813588699119616.000000000000
16740526945455176679424.000000000000
-3262891591546532003840.000000000000
-3968853816448759889920.000000000000
761388558548488290304.000000000000
896069692844374622208.000000000000
-169554876862827069440.000000000000
-193023098678961471488.000000000000
36102654088004632576.000000000000
39738160115660316672.000000000000
-7363063078894320640.000000000000
-7830998463062577152.000000000000
1440738521754588160.000000000000
1479330303831941632.000000000000
-270891764226877760.000000000000
-268246530388971968.000000000000
49015718960690232.000000000000
46748417922825120.000000000000
-8547218732515041.000000000000
-7839216216035863.000000000000
1438362731167408.000000000000
1266287079401307.500000000000
-233916501281653.437500000000
-197244306221081.593750000000
36812335839051.015625000000
29657479429785.750000000000
-5613817492567.074218750000
-4308856449603.748046875000
830711394136.868896484375
605533738136.569458007812
-119443064460.438034057617
-82403115195.752471923828
16709550912.472539901733
10872178474.740139007568
-2277125282.852146148682
-1392815361.182066917419
302586442.476531028748
173565150.602936863899
-39227411.391750045121
-21088441.234392978251
4960843.061138133518
2506706.927367301658
-611174.752905944828
-293392.440367196687
72801.416475526959
34373.060199081097
-7902.197687846399
-4089.063787730940
432.692010412142
320.209914889890
175.595391578785
212.672836912006
-20.892678842211
-213.319879420686
-108.127951610590
84.737723726533
122.400405341647
38.712630892046
-69.039382301262
-92.246467661057
10.669143754005
69.657251005112
22.145037377913
-9.894201904485
-31.034857993695
-36.858440644955
26.118067298304
41.659589216793
-13.994436537952
-12.135725266835
-2.358418246019
-21.425139848139
18.018966346014
31.809880221673
-26.068593485597
-13.672541580490
20.827469303135
-16.518145079211
-1.905354371622
34.409446279323
-22.333898819970
-22.740179764620
38.175348137561
-12.561525789375
-26.920337215303
46.762969289258
-16.800700650871
-43.668292992081
72.806066532104
-13.817671287704
-94.825273231468
64.997507634234
95.397717852270
289.550677550119
-592.523347545630
-3463.464214876782
5498.290459123209
25711.073154537200
-41968.697045995134
-178324.329261093866
295633.213009473635
1214785.827630547341
-2022585.891786928754
-8125643.234270182438
13574221.650068655610
53226437.616255275905
-89358686.517100602388
-341112298.163305342197
576435810.852963209152
2136883648.346429347992
-3638692454.436493873596
-13071352717.593652725220
22438441094.238014221191
77973296560.121917724609
-134916878000.191680908203
-452861833540.307617187500
789301409341.255859375000
2556182722608.408203125000
-4482586906182.055664062500
-13994776196068.591796875000
24654164215988.625000000000
74162106727795.937500000000
-131002522866995.875000000000
-379581324891765.250000000000
670890905967101.750000000000
1872322822322964.000000000000
-3303493203272322.500000000000
-8880605795914570.000000000000
15603495517848500.000000000000
40411805991169976.000000000000
-70530894434572512.000000000000
-176024839416854912.000000000000
304382632216124160.000000000000
732155501677368576.000000000000
-1251101720762729472.000000000000
-2900765308201843200.000000000000
4885421239741227008.000000000000
10918219445086928896.000000000000
-18075221291418656768.000000000000
-38929771990182445056.000000000000
63179465868683141120.000000000000
131082790230044884992.000000000000
-207963039089602068480.000000000000
-415366966276124049408.000000000000
642313353895628374016.000000000000
1233750908622471954432.000000000000
-1853788362974794612736.000000000000
-3419421059040996753408.000000000000
4975301216462806450176.000000000000
8795688621477134860288.000000000000
-12345228683218568347648.000000000000
-20861682474687202852864.000000000000
28118181118781247455232.000000000000
45254154648042269048832.000000000000
-58252698631291273216000.000000000000
-88840952502221040254976.000000000000
108442579644450378612736.000000000000
155578835985825485815808.000000000000
-178303613246977364459520.000000000000
-237942401641820803039232.000000000000
252145802938783667060736.000000000000
306985860409837962133504.000000000000
-292570208482062558560256.000000000000
-312156183971137507557376.000000000000
250383418070893183631360.000000000000
206683940225745604837376.000000000000
-101852438884486966411264.000000000000
0.000000000000
0.000000000000
-5041641308743674656146325504.000000000000
3533121831927192138868064256.000000000000
12384204202223433150046928896.000000000000
-5330366352003022091389501440.000000000000
-14454866542958395393283457024.000000000000
5234766916355964377900253184.000000000000
12441889303672040222451826688.000000000000
-4050824866159899236286595072.000000000000
-8786367612055384986723811328.000000000000
2643808473889576597864841216.000000000000
5336411403179974038518759424.000000000000
-1506684096382726826121756672.000000000000
-2862637158063448580364959744.000000000000
765806795198121971470565376.000000000000
1379905637284457875345768448.000000000000
-352192438100510323272318976.000000000000
-605049603323728932041129984.000000000000
148108545788658961558274048.000000000000
243534756565495801593200640.000000000000
-57416739429763830081650688.000000000000
-90629245579724919733747712.000000000000
20652168506079486465277952.000000000000
31363788754057338948681728.000000000000
-6929022537920158363549696.000000000000
-10142111169744340881768448.000000000000
2178216352519060847591424.000000000000
3077050593836524430688256.000000000000
-644048315502711468457984.000000000000
-878957059274803762954240.000000000000
179710751504690944409600.000000000000
237112012677926845677568.000000000000
-47462037051905098645504.000000000000
-60570657824004229824512.000000000000
11895309002544661921792.000000000000
14687100198462615977984.000000000000
-2835890295419747958784.000000000000
-3387747100729189859328.000000000000
644497660082521374720.000000000000
744790233139044417536.000000000000
-139903183319303143424.000000000000
-156342143281141645312.000000000000
29060252104590450688.000000000000
31386517076222099456.000000000000
-5785938508572303360.000000000000
-6035102624190034944.000000000000
1105970162718677248.000000000000
1113015237206124160.000000000000
-203265921669601600.000000000000
-197128852867092864.000000000000
35972078621069368.000000000000
33570098361810680.000000000000
-6138381648919882.000000000000
-5502975402272280.000000000000
1011401924238450.125000000000
869257861200944.000000000000
-161124837344178.468750000000
-132449567021759.078125000000
24851685877416.523437500000
19486689176915.390625000000
-3716131813876.659179687500
-2771072281887.313476562500
539454919426.206787109375
381272478518.605468750000
-76124537533.748184204102
-50815867024.562797546387
10455454375.449890136719
6569238096.696821212769
-1399187924.724206447601
-825053757.050327777863
182573720.997986972332
100876354.360491454601
-23230887.890312597156
-12039202.695381004363
2879259.627205432393
1407408.893714188132
-346362.668557051802
-161731.295663485973
40085.504101286118
18176.839623047585
-4438.768441008835
-1880.847001519199
564.876861566038
148.797653940684
-182.982835438274
-52.160459656018
100.417623254761
83.771741343294
-20.960319093921
-74.225598681054
-35.223397034180
33.738475111479
46.806505079476
9.692612693800
-25.754285758290
-36.432432158671
0.367420396251
36.199689499262
8.376175729477
-15.008731262665
-4.354606587947
-11.683534139404
1.431943822124
26.609437114271
-5.535778216289
-20.262370847353
13.294985889723
1.945607892712
-12.333691570186
14.886378103769
0.332495357698
-18.572232845998
14.589021998974
8.655531812675
-19.800366237453
5.518753483358
10.220426448195
-11.772131110445
4.246773526814
2.327360193584
-6.990572697607
15.462367780610
-21.430673783677
-47.945561154783
111.607650268833
261.580562590100
-559.049143189395
-2081.528230204586
3701.108275448828
15756.545618274973
-26595.749054295135
-113002.363730695361
188667.510532071727
786546.752028263058
-1310671.456819727784
-5350623.695261895657
8928602.285478804260
35606107.303853705525
-59642965.305115051568
-231775730.389575451612
390475220.468795895576
1474968549.494755506516
-2502658582.129386425018
-9168522925.025856018066
15680084809.274288177490
55606096007.674842834473
-95868843700.303329467773
-328568900645.625122070312
570846098783.116699218750
1888324712993.664550781250
-3303057746187.969726562500
-10535464501081.580078125000
18529173614014.769531250000
56947953965389.101562500000
-100530634595684.921875000000
-297599129329937.250000000000
526256608464466.750000000000
1500278648823422.500000000000
-2651645348785765.500000000000
-7280157195226022.000000000000
12829979436739000.000000000000
33928592300260272.000000000000
-59471850141805952.000000000000
-151515412288486976.000000000000
263483167782209632.000000000000
646839423564982272.000000000000
-1113051570701898752.000000000000
-2633467560352153088.000000000000
4472283703857376256.000000000000
10198540120380139520.000000000000
-17047838362635309056.000000000000
-37465896738133663744.000000000000
61479046839012327424.000000000000
130175431826230640640.000000000000
-209113124237831077888.000000000000
-426371642486517923840.000000000000
668588110714563985408.000000000000
1311623105307841921024.000000000000
-2001636616874148757504.000000000000
-3773588566029060014080.000000000000
5586252255989516468224.000000000000
10103686253302498983936.000000000000
-14456574278195140886528.000000000000
-25027732111076372774912.000000000000
34468818893526727131136.000000000000
56941671658544921837568.000000000000
-75111305226038471032832.000000000000
-117896897512062264016896.000000000000
148029944022136281628672.000000000000
219440640979660917702656.000000000000
-260090252191621592383488.000000000000
-360878525466668378882048.000000000000
398890382534171749777408.000000000000
510567878950981759664128.000000000000
-515817258738678639886336.000000000000
-592803491434398203510784.000000000000
525458235183505678008320.000000000000
507684268878729003925504.000000000000
-348366646438436177707008.000000000000
-206640163216750035337216.000000000000
0.000000000000
0.000000000000
-2538584237128899510539386880.000000000000
-12384730894903505075342147584.000000000000
6229845897688999496234565632.000000000000
18655155713078028550998589440.000000000000
-7261875881599844605226909696.000000000000
-18281393652740271014900924416.000000000000
6241390782640420045981745152.000000000000
14110052998958534447389999104.000000000000
-4401014234023287424362217472.000000000000
-9181356221852213423477096448.000000000000
2669101116503258084627447808.000000000000
5214465664306624962314108928.000000000000
-1429903642889829598812438528.000000000000
-2640152998256001048687673344.000000000000
688481469731840120707874816.000000000000
1208956728605286789948637184.000000000000
-301604573082019937222918144.000000000000
-505956752831087537664557056.000000000000
121321439163107287368728576.000000000000
195090425570938511855452160.000000000000
-45136165313329690612596736.000000000000
-69753485382597678081245184.000000000000
15622119069422721137901568.000000000000
23248136752486997378990080.000000000000
-5054719086547541367455744.000000000000
-7254676910169305338871808.000000000000
1535291409037476388405248.000000000000
2127603130074428952543232.000000000000
-439310504195488955236352.000000000000
-588331561441491016482816.000000000000
118794787365781306867712.000000000000
153834906596855500505088.000000000000
-30441944280710107889664.000000000000
-38132016281209347768320.000000000000
7410980402644089044992.000000000000
8980719644286916755456.000000000000
-1717842473820029714432.000000000000
-2013751535094786949120.000000000000
379914652035832807424.000000000000
430703474988765544448.000000000000
-80316188412350611456.000000000000
-88016154273912979456.000000000000
16259013931502647296.000000000000
17211977318459912192.000000000000
-3156963863142808576.000000000000
-3225547090512232448.000000000000
588842261748702464.000000000000
580034642847715584.000000000000
-105662178413890784.000000000000
-100211099555258944.000000000000
18266021369142104.000000000000
16652819989045852.000000000000
-3046263164797821.000000000000
-2664645517639400.000000000000
490766284967987.812500000000
410977093839872.062500000000
-76479702150392.218750000000
-61158113614013.250000000000
11544146730396.558593750000
8789736844321.113281250000
-1690059309288.615234375000
-1221292552390.183105468750
240293038965.788879394531
164230011803.370666503906
-33222477172.002746582031
-21399356829.557067871094
4471680490.669839859009
2705771604.836988925934
-586458116.246140956879
-332587793.354058742523
74970200.651682674885
39833584.567618802190
-9336370.042707230896
-4661826.175197486766
1130297.578073119977
534425.069728123257
-132738.846609705011
-59870.248996303977
15464.416924422036
6540.741085154063
-2137.617641016703
-896.538871037158
473.725635339393
387.336217872090
-63.698653973650
-263.041423300475
-115.912396344512
100.174509677574
152.192744888459
39.394378041820
-101.766163237496
-96.910335264692
27.700009874817
75.059113335991
26.710643230953
-17.543858635850
-46.506362014304
-26.952995329864
41.204327175755
37.731338735046
-22.906572488187
-19.326666913618
2.172053190500
-6.632209638347
15.778846826177
19.674334514088
-26.766084700521
-12.598617955816
24.712349810039
-8.288366907838
-9.754842588723
22.485111107037
-14.787871686916
-17.682774211175
29.016963510546
-10.179109671946
-18.577726425374
35.809958783419
-21.914496983184
-23.510280920596
62.427772985578
-60.786806697040
-28.996660143837
267.711108633008
-275.821696938251
-1102.428523581261
1872.365283840380
6830.197141047118
-12049.240980582588
-48824.042887398362
83143.362930217249
347883.679399093962
-582655.292776588001
-2415823.504999127239
4032138.210548475385
16372479.117384813726
-27376630.348277900368
-108461461.311600938439
182195673.653803408146
702315362.488192081451
-1187363196.616940259933
-4442724599.730663299561
7567989607.569301605225
27430031880.327098846436
-47104217135.132644653320
-165087102647.472625732422
285769929829.350585937500
967027654694.342895507812
-1686325441873.634765625000
-5503431938875.939453125000
9657213857862.736328125000
30370568318839.648437500000
-53545433794960.562500000000
-162181655759904.750000000000
286754973676584.875000000000
836281742733481.250000000000
-1479709662958239.500000000000
-4154873774296899.000000000000
7339871838609627.000000000000
19845157814173344.000000000000
-34916200051490052.000000000000
-90920941003315200.000000000000
158919133860013952.000000000000
398643598131601536.000000000000
-690418120817058560.000000000000
-1668718317844147200.000000000000
2856184884490351616.000000000000
6652375861310771200.000000000000
-11222898579688347648.000000000000
-25189398969816055808.000000000000
41773988944116826112.000000000000
90337578032068591616.000000000000
-146868769186611806208.000000000000
-305895350796569083904.000000000000
486165788025770541056.000000000000
974587160910764703744.000000000000
-1509749158331515142144.000000000000
-2910041126114119122944.000000000000
4380193482470340427776.000000000000
8106406731428038443008.000000000000
-11815269534904415682560.000000000000
-20954155554398655217664.000000000000
29459778559596298240000.000000000000
49933554332891730673664.000000000000
-67411879151171247538176.000000000000
-108807584558192881827840.000000000000
140279039042289544462336.000000000000
214526171841412785504256.000000000000
-262244071417094338510848.000000000000
-377209996217897405382656.000000000000
432897338863444966768640.000000000000