# vtk DataFile Version 2.0
TITLE = "Quad data"
ASCII
DATASET STRUCTURED_GRID
DIMENSIONS 201 201 1
POINTS 40401 FLOAT
-1.000000 -1.000000 0.000000
-1.000000 -0.990000 0.000000
-1.000000 -0.980000 0.000000
-1.000000 -0.970000 0.000000
-1.000000 -0.960000 0.000000
-1.000000 -0.950000 0.000000
-1.000000 -0.940000 0.000000
-1.000000 -0.930000 0.000000
-1.000000 -0.920000 0.000000
-1.000000 -0.910000 0.000000
-1.000000 -0.900000 0.000000
-1.000000 -0.890000 0.000000
-1.000000 -0.880000 0.000000
-1.000000 -0.870000 0.000000
-1.000000 -0.860000 0.000000
-1.000000 -0.850000 0.000000
-1.000000 -0.840000 0.000000
-1.000000 -0.830000 0.000000
-1.000000 -0.820000 0.000000
-1.000000 -0.810000 0.000000
-1.000000 -0.800000 0.000000
-1.000000 -0.790000 0.000000
-1.000000 -0.780000 0.000000
-1.000000 -0.770000 0.000000
-1.000000 -0.760000 0.000000
-1.000000 -0.750000 0.000000
-1.000000 -0.740000 0.000000
-1.000000 -0.730000 0.000000
-1.000000 -0.720000 0.000000
-1.000000 -0.710000 0.000000
-1.000000 -0.700000 0.000000
-1.000000 -0.690000 0.000000
-1.000000 -0.680000 0.000000
-1.000000 -0.670000 0.000000
-1.000000 -0.660000 0.000000
-1.000000 -0.650000 0.000000
-1.000000 -0.640000 0.000000
-1.000000 -0.630000 0.000000
-1.000000 -0.620000 0.000000
-1.000000 -0.610000 0.000000
-1.000000 -0.600000 0.000000
-1.000000 -0.590000 0.000000
-1.000000 -0.580000 0.000000
-1.000000 -0.570000 0.000000
-1.000000 -0.560000 0.000000
-1.000000 -0.550000 0.000000
-1.000000 -0.540000 0.000000
-1.000000 -0.530000 0.000000
-1.000000 -0.520000 0.000000
-1.000000 -0.510000 0.000000
-1.000000 -0.500000 0.000000
-1.000000 -0.490000 0.000000
-1.000000 -0.480000 0.000000
-1.000000 -0.470000 0.000000
-1.000000 -0.460000 0.000000
-1.000000 -0.450000 0.000000
-1.000000 -0.440000 0.000000
-1.000000 -0.430000 0.000000
-1.000000 -0.420000 0.000000
-1.000000 -0.410000 0.000000
-1.000000 -0.400000 0.000000
-1.000000 -0.390000 0.000000
-1.000000 -0.380000 0.000000
-1.000000 -0.370000 0.000000
-1.000000 -0.360000 0.000000
-1.000000 -0.350000 0.000000
-1.000000 -0.340000 0.000000
-1.000000 -0.330000 0.000000
-1.000000 -0.320000 0.000000
-1.000000 -0.310000 0.000000
-1.000000 -0.300000 0.000000
-1.000000 -0.290000 0.000000
-1.000000 -0.280000 0.000000
-1.000000 -0.270000 0.000000
-1.000000 -0.260000 0.000000
-1.000000 -0.250000 0.000000
-1.000000 -0.240000 0.000000
-1.000000 -0.230000 0.000000
-1.000000 -0.220000 0.000000
-1.000000 -0.210000 0.000000
-1.000000 -0.200000 0.000000
-1.000000 -0.190000 0.000000
-1.000000 -0.180000 0.000000
-1.000000 -0.170000 0.000000
-1.000000 -0.160000 0.000000
-1.000000 -0.150000 0.000000
-1.000000 -0.140000 0.000000
-1.000000 -0.130000 0.000000
-1.000000 -0.120000 0.000000
-1.000000 -0.110000 0.000000
-1.000000 -0.100000 0.000000
-1.000000 -0.090000 0.000000
-1.000000 -0.080000 0.000000
-1.000000 -0.070000 0.000000
-1.000000 -0.060000 0.000000
-1.000000 -0.050000 0.000000
-1.000000 -0.040000 0.000000
-1.000000 -0.030000 0.000000
-1.000000 -0.020000 0.000000
-1.000000 -0.010000 0.000000
-1.000000 0.000000 0.000000
-1.000000 0.010000 0.000000
-1.000000 0.020000 0.000000
-1.000000 0.030000 0.000000
-1.000000 0.040000 0.000000
-1.000000 0.050000 0.000000
-1.000000 0.060000 0.000000
-1.000000 0.070000 0.000000
-1.000000 0.080000 0.000000
-1.000000 0.090000 0.000000
-1.000000 0.100000 0.000000
-1.000000 0.110000 0.000000
-1.000000 0.120000 0.000000
-1.000000 0.130000 0.000000
-1.000000 0.140000 0.000000
-1.000000 0.150000 0.000000
-1.000000 0.160000 0.000000
-1.000000 0.170000 0.000000
-1.000000 0.180000 0.000000
-1.000000 0.190000 0.000000
-1.000000 0.200000 0.000000
-1.000000 0.210000 0.000000
-1.000000 0.220000 0.000000
-1.000000 0.230000 0.000000
-1.000000 0.240000 0.000000
-1.000000 0.250000 0.000000
-1.000000 0.260000 0.000000
-1.000000 0.270000 0.000000
-1.000000 0.280000 0.000000
-1.000000 0.290000 0.000000
-1.000000 0.300000 0.000000
-1.000000 0.310000 0.000000
-1.000000 0.320000 0.000000
-1.000000 0.330000 0.000000
-1.000000 0.340000 0.000000
-1.000000 0.350000 0.000000
-1.000000 0.360000 0.000000
-1.000000 0.370000 0.000000
-1.000000 0.380000 0.000000
-1.000000 0.390000 0.000000
-1.000000 0.400000 0.000000
-1.000000 0.410000 0.000000
-1.000000 0.420000 0.000000
-1.000000 0.430000 0.000000
-1.000000 0.440000 0.000000
-1.000000 0.450000 0.000000
-1.000000 0.460000 0.000000
-1.000000 0.470000 0.000000
-1.000000 0.480000 0.000000
-1.000000 0.490000 0.000000
-1.000000 0.500000 0.000000
-1.000000 0.510000 0.000000
-1.000000 0.520000 0.000000
-1.000000 0.530000 0.000000
-1.000000 0.540000 0.000000
-1.000000 0.550000 0.000000
-1.000000 0.560000 0.000000
-1.000000 0.570000 0.000000
-1.000000 0.580000 0.000000
-1.000000 0.590000 0.000000
-1.000000 0.600000 0.000000
-1.000000 0.610000 0.000000
-1.000000 0.620000 0.000000
-1.000000 0.630000 0.000000
-1.000000 0.640000 0.000000
-1.000000 0.650000 0.000000
-1.000000 0.660000 0.000000
-1.000000 0.670000 0.000000
-1.000000 0.680000 0.000000
-1.000000 0.690000 0.000000
-1.000000 0.700000 0.000000
-1.000000 0.710000 0.000000
-1.000000 0.720000 0.000000
-1.000000 0.730000 0.000000
-1.000000 0.740000 0.000000
-1.000000 0.750000 0.000000
-1.000000 0.760000 0.000000
-1.000000 0.770000 0.000000
-1.000000 0.780000 0.000000
-1.000000 0.790000 0.000000
-1.000000 0.800000 0.000000
-1.000000 0.810000 0.000000
-1.000000 0.820000 0.000000
-1.000000 0.830000 0.000000
-1.000000 0.840000 0.000000
-1.000000 0.850000 0.000000
-1.000000 0.860000 0.000000
-1.000000 0.870000 0.000000
-1.000000 0.880000 0.000000
-1.000000 0.890000 0.000000
-1.000000 0.900000 0.000000
-1.000000 0.910000 0.000000
-1.000000 0.920000 0.000000
-1.000000 0.930000 0.000000
-1.000000 0.940000 0.000000
-1.000000 0.950000 0.000000
-1.000000 0.960000 0.000000
-1.000000 0.970000 0.000000
-1.000000 0.980000 0.000000
-1.000000 0.990000 0.000000
-1.000000 1.000000 0.000000
-0.990000 -1.000000 0.000000
-0.990000 -0.990000 0.000000
-0.990000 -0.980000 0.000000
-0.990000 -0.970000 0.000000
-0.990000 -0.960000 0.000000
-0.990000 -0.950000 0.000000
-0.990000 -0.940000 0.000000
-0.990000 -0.930000 0.000000
-0.990000 -0.920000 0.000000
-0.990000 -0.910000 0.000000
-0.990000 -0.900000 0.000000
-0.990000 -0.890000 0.000000
-0.990000 -0.880000 0.000000
-0.990000 -0.870000 0.000000
-0.990000 -0.860000 0.000000
-0.990000 -0.850000 0.000000
-0.990000 -0.840000 0.000000
-0.990000 -0.830000 0.000000
-0.990000 -0.820000 0.000000
-0.990000 -0.810000 0.000000
-0.990000 -0.800000 0.000000
-0.990000 -0.790000 0.000000
-0.990000 -0.780000 0.000000
-0.990000 -0.770000 0.000000
-0.990000 -0.760000 0.000000
-0.990000 -0.750000 0.000000
-0.990000 -0.740000 0.000000
-0.990000 -0.730000 0.000000
-0.990000 -0.720000 0.000000
-0.990000 -0.710000 0.000000
-0.990000 -0.700000 0.000000
-0.990000 -0.690000 0.000000
-0.990000 -0.680000 0.000000
-0.990000 -0.670000 0.000000
-0.990000 -0.660000 0.000000
-0.990000 -0.650000 0.000000
-0.990000 -0.640000 0.000000
-0.990000 -0.630000 0.000000
-0.990000 -0.620000 0.000000
-0.990000 -0.610000 0.000000
-0.990000 -0.600000 0.000000
-0.990000 -0.590000 0.000000
-0.990000 -0.580000 0.000000
-0.990000 -0.570000 0.000000
-0.990000 -0.560000 0.000000
-0.990000 -0.550000 0.000000
-0.990000 -0.540000 0.000000
-0.990000 -0.530000 0.000000
-0.990000 -0.520000 0.000000
-0.990000 -0.510000 0.000000
-0.990000 -0.500000 0.000000
-0.990000 -0.490000 0.000000
-0.990000 -0.480000 0.000000
-0.990000 -0.470000 0.000000
-0.990000 -0.460000 0.000000
-0.990000 -0.450000 0.000000
-0.990000 -0.440000 0.000000
-0.990000 -0.430000 0.000000
-0.990000 -0.420000 0.000000
-0.990000 -0.410000 0.000000
-0.990000 -0.400000 0.000000
-0.990000 -0.390000 0.000000
-0.990000 -0.380000 0.000000
-0.990000 -0.370000 0.000000
-0.990000 -0.360000 0.000000
-0.990000 -0.350000 0.000000
-0.990000 -0.340000 0.000000
-0.990000 -0.330000 0.000000
-0.990000 -0.320000 0.000000
-0.990000 -0.310000 0.000000
-0.990000 -0.300000 0.000000
-0.990000 -0.290000 0.000000
-0.990000 -0.280000 0.000000
-0.990000 -0.270000 0.000000
-0.990000 -0.260000 0.000000
-0.990000 -0.250000 0.000000
-0.990000 -0.240000 0.000000
-0.990000 -0.230000 0.000000
-0.990000 -0.220000 0.000000
-0.990000 -0.210000 0.000000
-0.990000 -0.200000 0.000000
-0.990000 -0.190000 0.000000
-0.990000 -0.180000 0.000000
-0.990000 -0.170000 0.000000
-0.990000 -0.160000 0.000000
-0.990000 -0.150000 0.000000
-0.990000 -0.140000 0.000000
-0.990000 -0.130000 0.000000
-0.990000 -0.120000 0.000000
-0.990000 -0.110000 0.000000
-0.990000 -0.100000 0.000000
-0.990000 -0.090000 0.000000
-0.990000 -0.080000 0.000000
-0.990000 -0.070000 0.000000
-0.990000 -0.060000 0.000000
-0.990000 -0.050000 0.000000
-0.990000 -0.040000 0.000000
-0.990000 -0.030000 0.000000
-0.990000 -0.020000 0.000000
-0.990000 -0.010000 0.000000
-0.990000 0.000000 0.000000
-0.990000 0.010000 0.000000
-0.990000 0.020000 0.000000
-0.990000 0.030000 0.000000
-0.990000 0.040000 0.000000
-0.990000 0.050000 0.000000
-0.990000 0.060000 0.000000
-0.990000 0.070000 0.000000
-0.990000 0.080000 0.000000
-0.990000 0.090000 0.000000
-0.990000 0.100000 0.000000
-0.990000 0.110000 0.000000
-0.990000 0.120000 0.000000
-0.990000 0.130000 0.000000
-0.990000 0.140000 0.000000
-0.990000 0.150000 0.000000
-0.990000 0.160000 0.000000
-0.990000 0.170000 0.000000
-0.990000 0.180000 0.000000
-0.990000 0.190000 0.000000
-0.990000 0.200000 0.000000
-0.990000 0.210000 0.000000
-0.990000 0.220000 0.000000
-0.990000 0.230000 0.000000
-0.990000 0.240000 0.000000
-0.990000 0.250000 0.000000
-0.990000 0.260000 0.000000
-0.990000 0.270000 0.000000
-0.990000 0.280000 0.000000
-0.990000 0.290000 0.000000
-0.990000 0.300000 0.000000
-0.990000 0.310000 0.000000
-0.990000 0.320000 0.000000
-0.990000 0.330000 0.000000
-0.990000 0.340000 0.000000
-0.990000 0.350000 0.000000
-0.990000 0.360000 0.000000
-0.990000 0.370000 0.000000
-0.990000 0.380000 0.000000
-0.990000 0.390000 0.000000
-0.990000 0.400000 0.000000
-0.990000 0.410000 0.000000
-0.990000 0.420000 0.000000
-0.990000 0.430000 0.000000
[...]
POINT_DATA 40401
SCALARS phi FLOAT 1
LOOKUP_TABLE default
0.000000000000
0.000000000000
0.000000000000
0.000000000000
0.000000000000
0.000000000000
0.000000000000
0.000000000000
0.000000000000
0.000000000000
0.000000000000
0.000000000000
0.000000000000
0.000000000000
0.000000000000
0.000000000000
0.000000000000
0.000000000000
0.000000000000
0.000000000000
0.000000000000
0.000000000000
0.000000000000
0.000000000000
0.000000000000
0.000000000000
0.000000000000
0.000000000000
0.000000000000
0.000000000000
0.000000000000
0.000000000000
0.000000000000
0.000000000000
0.000000000000
0.000000000000
0.000000000000
0.000000000000
0.000000000000
0.000000000000
0.000000000000
0.000000000000
0.000000000000
0.000000000000
0.000000000000
0.000000000000
0.000000000000
0.000000000000
0.000000000000
0.000000000000
0.000000000000
0.000000000000
0.000000000000
0.000000000000
0.000000000000
0.000000000000
0.000000000000
0.000000000000
0.000000000000
0.000000000000
0.000000000000
0.000000000000
0.000000000000
0.000000000000
0.000000000000
0.000000000000
0.000000000000
0.000000000000
0.000000000000
0.000000000000
0.000000000000
0.000000000000
0.000000000000
0.000000000000
0.000000000000
0.000000000000
0.000000000000
0.000000000000
0.000000000000
0.000000000000
0.000000000000
0.000000000000
0.000000000000
0.000000000000
0.000000000000
0.000000000000
0.000000000000
0.000000000000
0.000000000000
0.000000000000
0.000000000000
0.000000000000
0.000000000000
0.000000000000
0.000000000000
0.000000000000
0.000000000000
0.000000000000
0.000000000000
0.000000000000
0.000000000000
0.000000000000
0.000000000000
0.000000000000
0.000000000000
0.000000000000
0.000000000000
0.000000000000
0.000000000000
0.000000000000
0.000000000000
0.000000000000
0.000000000000
0.000000000000
0.000000000000
0.000000000000
0.000000000000
0.000000000000
0.000000000000
0.000000000000
0.000000000000
0.000000000000
0.000000000000
0.000000000000
0.000000000000
0.000000000000
0.000000000000
0.000000000000
0.000000000000
0.000000000000
0.000000000000
0.000000000000
0.000000000000
0.000000000000
0.000000000000
0.000000000000
0.000000000000
0.000000000000
0.000000000000
0.000000000000
0.000000000000
0.000000000000
0.000000000000
0.000000000000
0.000000000000
0.000000000000
0.000000000000
0.000000000000
0.000000000000
0.000000000000
0.000000000000
0.000000000000
0.000000000000
0.000000000000
0.000000000000
0.000000000000
0.000000000000
0.000000000000
0.000000000000
0.000000000000
0.000000000000
0.000000000000
0.000000000000
0.000000000000
0.000000000000
0.000000000000
0.000000000000
0.000000000000
0.000000000000
0.000000000000
0.000000000000
0.000000000000
0.000000000000
0.000000000000
0.000000000000
0.000000000000
0.000000000000
0.000000000000
0.000000000000
0.000000000000
0.000000000000
0.000000000000
0.000000000000
0.000000000000
0.000000000000
0.000000000000
0.000000000000
0.000000000000
0.000000000000
0.000000000000
0.000000000000
0.000000000000
0.000000000000
0.000000000000
0.000000000000
0.000000000000
0.000000000000
0.000000000000
0.000000000000
0.000000000000
0.000000000000
0.000000000000
-0.000145968352
-0.000105753500
0.000384552019
0.000270247332
-0.000444883010
-0.000425298869
0.000277944314
0.000389633063
-0.000058450871
-0.000098593456
0.000114265385
-0.000122201560
-0.000408908905
-0.000022149291
0.000561881986
0.000436251879
-0.000163612001
-0.000320475247
0.000046473873
0.000224247822
-0.000000246784
-0.000055842234
0.000381731495
0.000833226394
0.000737213606
0.000246894322
-0.000034835673
0.000122282162
0.000357791412
0.000273938883
-0.000061008452
-0.000260904575
-0.000121727895
0.000165919553
0.000273176711
0.000098911680
-0.000162483489
-0.000253244212
-0.000108823217
0.000113317839
0.000207358715
0.000103723248
-0.000090930659
-0.000209770487
-0.000162122241
0.000001707562
0.000153037242
0.000181740283
0.000078573274
-0.000077547065
-0.000176609235
-0.000158425604
-0.000040321542
0.000098612173
0.000174638119
0.000147278747
0.000037884969
-0.000088433425
-0.000164318497
-0.000152802392
-0.000065920288
0.000051223693
0.000140695515
0.000165509358
0.000117091511
0.000022306404
-0.000079570499
-0.000146183042
-0.000157116415
-0.000109816610
-0.000027081487
0.000063434531
0.000129757346
0.000155530179
0.000133779844
0.000076148110
-0.000001119004
-0.000074966763
-0.000128876081
-0.000150526290
-0.000138377196
-0.000097033064
-0.000037496450
0.000027427401
0.000085457711
0.000126902857
0.000146504988
0.000142820318
0.000118481385
0.000078617105
0.000029654645
-0.000021266949
-0.000068562562
-0.000106805524
-0.000133710002
-0.000146997752
-0.000147645461
-0.000136108990
-0.000115161770
-0.000086809725
-0.000053968357
-0.000019072694
0.000015895720
0.000048802288
0.000078896339
0.000104706187
0.000126416189
0.000143340867
0.000156060029
0.000164631665
0.000169586002
0.000171515457
0.000170759831
0.000168076768
0.000163787689
0.000158391923
0.000152479044
0.000146031255
0.000140003208
0.000133978563
0.000128986069
0.000124707339
0.000121688437
0.000120250832
0.000120087894
0.000122245357
0.000125825934
0.000132002133
0.000140106826
0.000150585652
0.000163639375
0.000178717978
0.000196567161
0.000216321790
0.000238162779
0.000261773504
0.000286084473
0.000311183000
0.000335323214
0.000357889923
0.000377422813
0.000392129807
0.000400683095
0.000401200328
0.000391654852
0.000371278222
0.000337949374
0.000291829826
0.000232794233
0.000161754974
0.000081455834
-0.000005049803
-0.000093087984
-0.000176948501
-0.000250391862
-0.000307863249
-0.000342185498
-0.000351373555
-0.000331011919
-0.000284573501
-0.000213602832
-0.000128797106
-0.000036183887
0.000048667578
0.000117932087
0.000161023577
0.000172335279
0.000153583761
0.000107795023
0.000048863312
-0.000017262941
-0.000062613203
-0.000103919712
-0.000091408372
-0.000093239773
-0.000027756972
-0.000014331136
0.000048531496
0.000047674330
0.000059393881
0.000037169421
0.000011942167
-0.000013303551
-0.000025520513
-0.000034487521
-0.000016698387
-0.000007756968
0.000007438354
0.000016269905
0.000013308769
0.000007314823
0.000000447680
-0.000007556997
-0.000007124070
-0.000002650918
-0.000001760724
0.000000972317
0.000005638342
0.000001036695
0.000000000000
0.000000000000
-0.000078371651
0.000414905239
0.000284040880
-0.000664703524
-0.000536171204
0.000604298685
0.000642578886
-0.000314493560
-0.000396428998
0.000191731398
-0.000003107539
-0.000471266295
0.000076659917
0.000865792060
0.000406686900
-0.000666186183
-0.000668714656
0.000251024946
0.000535773473
-0.000099203027
-0.000379769088
0.000259975905
0.000782552167
0.000266827038
-0.000672402967
-0.000834771631
-0.000126876300
0.000432746533
0.000158783845
-0.000487976944
-0.000631725756
-0.000104515078
0.000447872424
0.000407334775
-0.000131289324
-0.000556097080
-0.000439377864
0.000063701320
0.000444856132
0.000373532658
-0.000038344051
-0.000392773850
-0.000393200347
-0.000066179803
0.000300711758
0.000421989029
0.000226881400
-0.000119065477
-0.000357949950
-0.000335291992
-0.000081399390
0.000219646912
0.000377463922
0.000299650223
0.000050150257
-0.000220056548
-0.000354462970
-0.000290859858
-0.000071930251
0.000178192943
0.000334986528
0.000326604617
0.000167883206
-0.000061622016
-0.000257136910
-0.000338971303
-0.000280918071
-0.000114515411
0.000090498228
0.000257518363
0.000330572450
0.000291704352
0.000160666129
-0.000015575017
-0.000182076525
-0.000292109137
-0.000320162684
-0.000264553915
-0.000145466797
0.000004646769
0.000149263281
0.000258142937
0.000311342830
0.000303183412
0.000239605531
0.000136325623
0.000013541986
-0.000108016579
-0.000210061858
-0.000280598526
-0.000311984544
-0.000305049297
-0.000262244559
-0.000193507030
-0.000105927026
-0.000012189346
0.000081355396
0.000164302233
0.000233753310
0.000283890697
0.000315226775
0.000326577716
0.000320275106
0.000298621501
0.000263975334
0.000220632429
0.000169867419
0.000116540650
0.000060704426
0.000006546017
-0.000046470228
-0.000095779950
-0.000141611811
-0.000183480633
-0.000220755397
-0.000254750550
-0.000284174070
-0.000311096206
-0.000334447740
-0.000355672268
-0.000374867179
-0.000391954700
-0.000408346903
-0.000422751220
-0.000436861640
-0.000449550718
-0.000461239337
-0.000472215572
-0.000480962828
-0.000488911103
-0.000493679520
-0.000496022121
-0.000494549155
-0.000487859904
-0.000476045930
-0.000456357913
-0.000428735891
-0.000391498155
-0.000342896142
-0.000283362581
-0.000210694836
-0.000126005428
-0.000029530734
0.000077774925
0.000192643893
0.000311946697
0.000431496752
0.000543783926
0.000644368413
0.000723697249
0.000776000600
0.000793771538
0.000772642297
0.000708405324
0.000604282589
0.000461219664
0.000291566059
0.000105627585
-0.000078867842
-0.000244721522
-0.000373500378
-0.000451099234
-0.000469267903
-0.000422607341
-0.000326647141
-0.000186451110
-0.000037350581
0.000107064714
0.000209523997
0.000268408671
0.000254812574
0.000204867421
0.000096351877
0.000004012865
-0.000101802331
-0.000143541850
-0.000155561050
-0.000120701278
-0.000048754070
0.000010862755
0.000069363566
0.000087071285
0.000072418629
0.000042039536
-0.000003850240
-0.000036178519
-0.000041475344
-0.000039006659
-0.000014340188
0.000008117873
0.000019298328
0.000021699264
0.000012756048
-0.000002428097
-0.000007766437
-0.000006556520
-0.000009606826
-0.000001141326
0.000006924802
0.000000000000
0.000000000000
0.000171745120
0.000162358333
-0.000459609337
-0.000348316561
0.000578739649
0.000482877090
-0.000506817486
-0.000430759764
0.000424847350
0.000235185299
-0.000497560420
-0.000078226040
0.000767439953
0.000274646617
-0.000808063819
-0.000515900768
0.000696775209
0.000751192298
-0.000412684245
-0.000805820578
0.000217798202
0.000986218531
0.000305010287
-0.000709180067
-0.000459968686
0.000729255253
0.001186780764
0.000298381160
-0.000756128959
-0.000684056627
0.000295172219
0.000897429867
0.000423959598
-0.000507381669
-0.000819206756
-0.000212699297
0.000622318541
0.000832362892
0.000268274793
-0.000475553882
-0.000710665893
-0.000279287840
0.000383566052
0.000706809921
0.000453721424
-0.000128432045
-0.000578653261
-0.000575713002
-0.000162007221
0.000347296744
0.000600547807
0.000450983296
0.000019540384
-0.000411298813
-0.000582957255
-0.000414337678
-0.000017582709
0.000373412287
0.000556251386
0.000444440548
0.000115620402
-0.000264266148
-0.000509878000
-0.000523198225
-0.000306975622
0.000029573570
0.000347111359
0.000518283614
0.000491411154
0.000285018323
-0.000014044559
-0.000302404187
-0.000484673608
-0.000514130866
-0.000389339392
-0.000159028063
0.000109819096
0.000341342990
0.000483887421
0.000506200214
0.000415889417
0.000236317150
0.000015743766
-0.000204605151
-0.000378523328
-0.000484247835
-0.000504039485
-0.000446745209
-0.000322245820
-0.000158025591
0.000024499898
0.000197806303
0.000344414918
0.000449047499
0.000504986812
0.000511661758
0.000471760551
0.000395145103
0.000288763022
0.000166615962
0.000035071567
-0.000092827486
-0.000213796737
-0.000318602563
-0.000407092145
-0.000474790942
-0.000523193598
-0.000552373020
-0.000563643154
-0.000560745308
-0.000543635997
-0.000518316212
-0.000483408628
-0.000445285739
-0.000402394426
-0.000359445703
-0.000316279413
-0.000274531548
-0.000236292172
-0.000200195327
-0.000169867873
-0.000142740117
-0.000121892509
-0.000106086393
-0.000095900688
-0.000092798174
-0.000094859895
-0.000105129219
-0.000121488260
-0.000145807807
-0.000178243483
-0.000217916156
-0.000266995761
-0.000323373188
-0.000388023678
-0.000460423845
-0.000537795894
-0.000621228166
-0.000705580182
-0.000790003160
-0.000870222864
-0.000941170322
-0.000999287107
-0.001038213613
-0.001051943952
-0.001037095273
-0.000985975622
-0.000898102589
-0.000770454166
-0.000604532050
-0.000405659825
-0.000181654790
0.000056240575
0.000290852968
0.000506190808
0.000683138905
0.000802027479
0.000852275507
0.000821427748
0.000713227900
0.000533520965
0.000307606221
0.000054349153
-0.000180502313
-0.000376960051
-0.000495167645
-0.000526297181
-0.000463023325
-0.000326072620
-0.000138455679
0.000049074632
0.000212692184
0.000293652393
0.000315977665
0.000234043297
0.000128084667
-0.000015406247
-0.000116903511
-0.000179569497
-0.000168300484
-0.000113891816
-0.000027619826
0.000045816183
0.000093088525
0.000094241031
0.000060660827
0.000010993508
-0.000027523626
-0.000050457567
-0.000043053879
-0.000020318309
0.000005477121
0.000021549355
0.000023817121
0.000009444436
0.000001296029
-0.000005615684
-0.000015653111
-0.000002193978
0.000000000000
0.000000000000
0.000039798826
-0.000068858815
-0.000094137268
0.000151655025
0.000092325611
-0.000280223203
-0.000064039755
0.000483582032
0.000141957413
-0.000615377454
-0.000272995274
0.000634596774
0.000393262036
-0.000524525445
-0.000306769842
0.000664595852
0.000429909217
-0.000857860463
-0.001014262323
0.000401359286
0.001238122566
0.000242842044
-0.000981649081
-0.000581352091
0.000716217846
0.000831570757
-0.000525146819
-0.001500797363
-0.000758077782
0.000761250400
0.001191906401
0.000132185968
-0.001025150324
-0.000908458500
0.000269220012
0.001135830609
0.000774996878
-0.000372734300
-0.001116626116
-0.000780369722
0.000238201159
0.000963959745
0.000793734851
-0.000052699533
-0.000824274299
-0.000916744552
-0.000317172772
0.000475438557
0.000873983077
0.000637652727
-0.000028263209
-0.000649670359
-0.000839325645
-0.000504776291
0.000114638751
0.000645975734
0.000792505645
0.000501351075
-0.000049357711
-0.000559856364
-0.000779490692
-0.000618677345
-0.000173550027
0.000338052667
0.000690901245
0.000743136005
0.000493489680
0.000054076038
-0.000393974694
-0.000691032243
-0.000737305384
-0.000537253415
-0.000165761735
0.000245500514
0.000576539818
0.000732297047
0.000686775344
0.000460133014
0.000126164127
-0.000232077486
-0.000527218441
-0.000702395283
-0.000727345489
-0.000609630381
-0.000380784371
-0.000090226413
0.000208120618
0.000466474167
0.000647877995
0.000733658191
0.000718502969
0.000614256691
0.000439000338
0.000220616030
-0.000016453694
-0.000244422123
-0.000445989017
-0.000603006766
-0.000710458934
-0.000761816462
-0.000762384005
-0.000714626565
-0.000628812143
-0.000512515631
-0.000375624486
-0.000227595191
-0.000074614189
0.000074186997
0.000217013518
0.000346670953
0.000464259183
0.000565892478
0.000653028617
0.000726005878
0.000784552081
0.000832997263
0.000868973144
0.000898896690
0.000919981415
0.000937598607
0.000951145381
0.000962263532
0.000973902983
0.000983754271
0.000996815292
0.001009597272
0.001025441062
0.001043278606
0.001062027365
0.001083881201
0.001104450437
0.001125914865
0.001144711823
0.001158927659
0.001168204025
0.001166732975
0.001154707015
0.001127162570
0.001080704334
0.001014376844
0.000922404606
0.000805277989
0.000661184111
0.000489208140
0.000294414848
0.000078640695
-0.000149965827
-0.000380528677
-0.000603852965
-0.000802584160
-0.000963440597
-0.001070998981
-0.001111499907
-0.001074671328
-0.000959733111
-0.000764621312
-0.000507952044
-0.000205451507
0.000110311680
0.000408215212
0.000647553349
0.000804984090
0.000847697724
0.000777488532
0.000599308130
0.000341865759
0.000051761115
-0.000223302456
-0.000430815421
-0.000533195344
-0.000522106453
-0.000387380081
-0.000204087562
0.000031198404
0.000200553894
0.000314401464
0.000315442313
0.000230862701
0.000096230346
-0.000051627752
-0.000151573647
-0.000181957148
-0.000153830683
-0.000065957781
0.000018836662
0.000080625322
0.000099522521
0.000068261950
0.000024332605
-0.000023340172
-0.000049127413
-0.000041900548
-0.000021014138
0.000004915277
0.000022412396
0.000016923564
0.000014785804
-0.000001959235
-0.000013306152
0.000000000000
0.000000000000
0.000118545933
0.000063171729
-0.000285810305
-0.000205467713
0.000234762279
0.000357525241
0.000108340799
-0.000256997037
-0.000465333463
-0.000102446565
0.000543647403
0.000468613027
-0.000251855772
-0.000363519839
0.000204685934
0.000108703767
-0.000723159523
-0.000672859667
0.000575713787
0.001110454369
-0.000077822050
-0.001240351359
-0.000580498143
0.000886847747
0.000918995938
-0.000505596335
-0.001197112619
-0.000029056444
0.001452366077
0.001220770131
-0.000491118171
-0.001582472529
-0.000796577576
0.000833306490
0.001379209295
0.000291107477
-0.001145863183
-0.001371727837
-0.000209215550
0.001119639367
0.001340993404
0.000330209680
-0.000916240539
-0.001307256778
-0.000581690820
0.000580825642
0.001240423674
0.000938657431
-0.000022630435
-0.000911090626
-0.001125598622
-0.000576522913
0.000322483417
0.000990086032
0.001036949776
0.000483753617
-0.000322488278
-0.000918748835
-0.001008694781
-0.000571397002
0.000137808651
0.000767113356
0.001021846943
0.000813477518
0.000253531734
-0.000397537732
-0.000874282858
-0.000994480535
-0.000736867981
-0.000212613953
0.000374365570
0.000825699043
0.000998020011
0.000857907364
0.000461872520
-0.000056367092
-0.000550282035
-0.000887010071
-0.000995023035
-0.000859786062
-0.000531421361
-0.000092502353
0.000354993481
0.000723565709
0.000946199252
0.000996252472
0.000874000198
0.000616584891
0.000268145149
-0.000107271294
-0.000463601342
-0.000748194041
-0.000940941273
-0.001018725151
-0.000991412065
-0.000863203683
-0.000661696671
-0.000406300992
-0.000126180396
0.000156037743
0.000421118085
0.000650353404
0.000838478433
0.000973034330
0.001060566969
0.001094588970
0.001087926327
0.001039237198
0.000961527513
0.000858031103
0.000737415911
0.000606770023
0.000468800136
0.000332733826
0.000196845623
0.000069541371
-0.000051713459
-0.000162534408
-0.000262795918
-0.000353581569
-0.000431225991
-0.000500413907
-0.000556527196
-0.000603315811
-0.000639303123
-0.000663376598
-0.000678911136
-0.000680268637
-0.000672623505
-0.000650616828
-0.000615820747
-0.000567745887
-0.000502539306
-0.000423634955
-0.000326437284
-0.000212756286
-0.000083478149
0.000063664707
0.000222308479
0.000393492443
0.000570957719
0.000748193687
0.000920537322
0.001076380525
0.001206811596
0.001303016540
0.001349973080
0.001343195916
0.001271241812
0.001131574784
0.000925442215
0.000659344716
0.000345175391
0.000008357344
-0.000330835658
-0.000635707034
-0.000877178951
-0.001025467696
-0.001059530761
-0.000966597319
-0.000759812484
-0.000455046948
-0.000097850936
0.000259292320
0.000565748662
0.000761453162
0.000823379193
0.000729812521
0.000513572294
0.000214749693
-0.000105382524
-0.000353761738
-0.000512924888
-0.000511115267
-0.000393791582
-0.000183964617
0.000047538679
0.000224810765
0.000314561464
0.000287264845
0.000172714215
0.000025110922
-0.000103300409
-0.000176560238
-0.000155635414
-0.000095666720
-0.000000865664
0.000068856901
0.000087182757
0.000075028039
0.000023220618
-0.000021826526
-0.000040146079
-0.000041469423
-0.000015489683
0.000006565593
0.000016501910
0.000023853129
-0.000000799766
0.000000000000
0.000000000000
0.000082915844
-0.000365884738
-0.000281892848
0.000544325295
0.000496893714
-0.000386888922
-0.000508587033
0.000065545837
0.000250464495
0.000157370034
0.000170425945
-0.000032167702
-0.000325677295
-0.000168243606
0.000070675305
-0.000201476611
-0.000396367929
0.000109177027
0.000447653416
-0.000249463803
-0.000947473775
-0.000262717745
0.000993469630
0.000871289015
-0.000570212837
-0.001197536385
-0.000042493417
0.001197337928
0.000642192515
-0.001033485859
-0.001525205798
-0.000046403822
0.001650171719
0.001533477167
-0.000220470201
-0.001561441708
-0.001018948351
0.000727662011
0.001759224783
0.001030492002
-0.000675449389
-0.001687357828
-0.001119271539
0.000423114504
0.001548121317
0.001348788577
0.000083941083
-0.001190242226
-0.001516811800
-0.000739954925
0.000513869663
0.001356278592
0.001273710120
0.000387346442
-0.000699736913
-0.001332439437
-0.001183519388
-0.000387653655
0.000583800593
0.001222678397
0.001225673667
0.000637144952
-0.000239821002
-0.000984008993
-0.001286086064
-0.001034331833
-0.000370665406
0.000430130010
0.001047532249
0.001274045224
0.001042480369
0.000464735800
-0.000258976247
-0.000885439438
-0.001238281695
-0.001223402189
-0.000873873731
-0.000294245549
0.000345262701
0.000894824890
0.001221877894
0.001278847997
0.001059767398
0.000638377801
0.000097926622
-0.000444571412