# vtk DataFile Version 2.0
TITLE = "Quad data"
ASCII
DATASET STRUCTURED_GRID
DIMENSIONS 201 201 1
POINTS 40401 FLOAT
-1.000000 -1.000000 0.000000
-1.000000 -0.990000 0.000000
-1.000000 -0.980000 0.000000
-1.000000 -0.970000 0.000000
-1.000000 -0.960000 0.000000
-1.000000 -0.950000 0.000000
-1.000000 -0.940000 0.000000
-1.000000 -0.930000 0.000000
-1.000000 -0.920000 0.000000
-1.000000 -0.910000 0.000000
-1.000000 -0.900000 0.000000
-1.000000 -0.890000 0.000000
-1.000000 -0.880000 0.000000
-1.000000 -0.870000 0.000000
-1.000000 -0.860000 0.000000
-1.000000 -0.850000 0.000000
-1.000000 -0.840000 0.000000
-1.000000 -0.830000 0.000000
-1.000000 -0.820000 0.000000
-1.000000 -0.810000 0.000000
-1.000000 -0.800000 0.000000
-1.000000 -0.790000 0.000000
-1.000000 -0.780000 0.000000
-1.000000 -0.770000 0.000000
-1.000000 -0.760000 0.000000
-1.000000 -0.750000 0.000000
-1.000000 -0.740000 0.000000
-1.000000 -0.730000 0.000000
-1.000000 -0.720000 0.000000
-1.000000 -0.710000 0.000000
-1.000000 -0.700000 0.000000
-1.000000 -0.690000 0.000000
-1.000000 -0.680000 0.000000
-1.000000 -0.670000 0.000000
-1.000000 -0.660000 0.000000
-1.000000 -0.650000 0.000000
-1.000000 -0.640000 0.000000
-1.000000 -0.630000 0.000000
-1.000000 -0.620000 0.000000
-1.000000 -0.610000 0.000000
-1.000000 -0.600000 0.000000
-1.000000 -0.590000 0.000000
-1.000000 -0.580000 0.000000
-1.000000 -0.570000 0.000000
-1.000000 -0.560000 0.000000
-1.000000 -0.550000 0.000000
-1.000000 -0.540000 0.000000
-1.000000 -0.530000 0.000000
-1.000000 -0.520000 0.000000
-1.000000 -0.510000 0.000000
-1.000000 -0.500000 0.000000
-1.000000 -0.490000 0.000000
-1.000000 -0.480000 0.000000
-1.000000 -0.470000 0.000000
-1.000000 -0.460000 0.000000
-1.000000 -0.450000 0.000000
-1.000000 -0.440000 0.000000
-1.000000 -0.430000 0.000000
-1.000000 -0.420000 0.000000
-1.000000 -0.410000 0.000000
-1.000000 -0.400000 0.000000
-1.000000 -0.390000 0.000000
-1.000000 -0.380000 0.000000
-1.000000 -0.370000 0.000000
-1.000000 -0.360000 0.000000
-1.000000 -0.350000 0.000000
-1.000000 -0.340000 0.000000
-1.000000 -0.330000 0.000000
-1.000000 -0.320000 0.000000
-1.000000 -0.310000 0.000000
-1.000000 -0.300000 0.000000
-1.000000 -0.290000 0.000000
-1.000000 -0.280000 0.000000
-1.000000 -0.270000 0.000000
-1.000000 -0.260000 0.000000
-1.000000 -0.250000 0.000000
-1.000000 -0.240000 0.000000
-1.000000 -0.230000 0.000000
-1.000000 -0.220000 0.000000
-1.000000 -0.210000 0.000000
-1.000000 -0.200000 0.000000
-1.000000 -0.190000 0.000000
-1.000000 -0.180000 0.000000
-1.000000 -0.170000 0.000000
-1.000000 -0.160000 0.000000
-1.000000 -0.150000 0.000000
-1.000000 -0.140000 0.000000
-1.000000 -0.130000 0.000000
-1.000000 -0.120000 0.000000
-1.000000 -0.110000 0.000000
-1.000000 -0.100000 0.000000
-1.000000 -0.090000 0.000000
-1.000000 -0.080000 0.000000
-1.000000 -0.070000 0.000000
-1.000000 -0.060000 0.000000
-1.000000 -0.050000 0.000000
-1.000000 -0.040000 0.000000
-1.000000 -0.030000 0.000000
-1.000000 -0.020000 0.000000
-1.000000 -0.010000 0.000000
-1.000000 0.000000 0.000000
-1.000000 0.010000 0.000000
-1.000000 0.020000 0.000000
-1.000000 0.030000 0.000000
-1.000000 0.040000 0.000000
-1.000000 0.050000 0.000000
-1.000000 0.060000 0.000000
-1.000000 0.070000 0.000000
-1.000000 0.080000 0.000000
-1.000000 0.090000 0.000000
-1.000000 0.100000 0.000000
-1.000000 0.110000 0.000000
-1.000000 0.120000 0.000000
-1.000000 0.130000 0.000000
-1.000000 0.140000 0.000000
-1.000000 0.150000 0.000000
-1.000000 0.160000 0.000000
-1.000000 0.170000 0.000000
-1.000000 0.180000 0.000000
-1.000000 0.190000 0.000000
-1.000000 0.200000 0.000000
-1.000000 0.210000 0.000000
-1.000000 0.220000 0.000000
-1.000000 0.230000 0.000000
-1.000000 0.240000 0.000000
-1.000000 0.250000 0.000000
-1.000000 0.260000 0.000000
-1.000000 0.270000 0.000000
-1.000000 0.280000 0.000000
-1.000000 0.290000 0.000000
-1.000000 0.300000 0.000000
-1.000000 0.310000 0.000000
-1.000000 0.320000 0.000000
-1.000000 0.330000 0.000000
-1.000000 0.340000 0.000000
-1.000000 0.350000 0.000000
-1.000000 0.360000 0.000000
-1.000000 0.370000 0.000000
-1.000000 0.380000 0.000000
-1.000000 0.390000 0.000000
-1.000000 0.400000 0.000000
-1.000000 0.410000 0.000000
-1.000000 0.420000 0.000000
-1.000000 0.430000 0.000000
-1.000000 0.440000 0.000000
-1.000000 0.450000 0.000000
-1.000000 0.460000 0.000000
-1.000000 0.470000 0.000000
-1.000000 0.480000 0.000000
-1.000000 0.490000 0.000000
-1.000000 0.500000 0.000000
-1.000000 0.510000 0.000000
-1.000000 0.520000 0.000000
-1.000000 0.530000 0.000000
-1.000000 0.540000 0.000000
-1.000000 0.550000 0.000000
-1.000000 0.560000 0.000000
-1.000000 0.570000 0.000000
-1.000000 0.580000 0.000000
-1.000000 0.590000 0.000000
-1.000000 0.600000 0.000000
-1.000000 0.610000 0.000000
-1.000000 0.620000 0.000000
-1.000000 0.630000 0.000000
-1.000000 0.640000 0.000000
-1.000000 0.650000 0.000000
-1.000000 0.660000 0.000000
-1.000000 0.670000 0.000000
-1.000000 0.680000 0.000000
-1.000000 0.690000 0.000000
-1.000000 0.700000 0.000000
-1.000000 0.710000 0.000000
-1.000000 0.720000 0.000000
-1.000000 0.730000 0.000000
-1.000000 0.740000 0.000000
-1.000000 0.750000 0.000000
-1.000000 0.760000 0.000000
-1.000000 0.770000 0.000000
-1.000000 0.780000 0.000000
-1.000000 0.790000 0.000000
-1.000000 0.800000 0.000000
-1.000000 0.810000 0.000000
-1.000000 0.820000 0.000000
-1.000000 0.830000 0.000000
-1.000000 0.840000 0.000000
-1.000000 0.850000 0.000000
-1.000000 0.860000 0.000000
-1.000000 0.870000 0.000000
-1.000000 0.880000 0.000000
-1.000000 0.890000 0.000000
-1.000000 0.900000 0.000000
-1.000000 0.910000 0.000000
-1.000000 0.920000 0.000000
-1.000000 0.930000 0.000000
-1.000000 0.940000 0.000000
-1.000000 0.950000 0.000000
-1.000000 0.960000 0.000000
-1.000000 0.970000 0.000000
-1.000000 0.980000 0.000000
-1.000000 0.990000 0.000000
-1.000000 1.000000 0.000000
-0.990000 -1.000000 0.000000
-0.990000 -0.990000 0.000000
-0.990000 -0.980000 0.000000
-0.990000 -0.970000 0.000000
-0.990000 -0.960000 0.000000
-0.990000 -0.950000 0.000000
-0.990000 -0.940000 0.000000
-0.990000 -0.930000 0.000000
-0.990000 -0.920000 0.000000
-0.990000 -0.910000 0.000000
-0.990000 -0.900000 0.000000
-0.990000 -0.890000 0.000000
-0.990000 -0.880000 0.000000
-0.990000 -0.870000 0.000000
-0.990000 -0.860000 0.000000
-0.990000 -0.850000 0.000000
-0.990000 -0.840000 0.000000
-0.990000 -0.830000 0.000000
-0.990000 -0.820000 0.000000
-0.990000 -0.810000 0.000000
-0.990000 -0.800000 0.000000
-0.990000 -0.790000 0.000000
-0.990000 -0.780000 0.000000
-0.990000 -0.770000 0.000000
-0.990000 -0.760000 0.000000
-0.990000 -0.750000 0.000000
-0.990000 -0.740000 0.000000
-0.990000 -0.730000 0.000000
-0.990000 -0.720000 0.000000
-0.990000 -0.710000 0.000000
-0.990000 -0.700000 0.000000
-0.990000 -0.690000 0.000000
-0.990000 -0.680000 0.000000
-0.990000 -0.670000 0.000000
-0.990000 -0.660000 0.000000
-0.990000 -0.650000 0.000000
-0.990000 -0.640000 0.000000
-0.990000 -0.630000 0.000000
-0.990000 -0.620000 0.000000
-0.990000 -0.610000 0.000000
-0.990000 -0.600000 0.000000
-0.990000 -0.590000 0.000000
-0.990000 -0.580000 0.000000
-0.990000 -0.570000 0.000000
-0.990000 -0.560000 0.000000
-0.990000 -0.550000 0.000000
-0.990000 -0.540000 0.000000
-0.990000 -0.530000 0.000000
-0.990000 -0.520000 0.000000
-0.990000 -0.510000 0.000000
-0.990000 -0.500000 0.000000
-0.990000 -0.490000 0.000000
-0.990000 -0.480000 0.000000
-0.990000 -0.470000 0.000000
-0.990000 -0.460000 0.000000
-0.990000 -0.450000 0.000000
-0.990000 -0.440000 0.000000
-0.990000 -0.430000 0.000000
-0.990000 -0.420000 0.000000
-0.990000 -0.410000 0.000000
-0.990000 -0.400000 0.000000
-0.990000 -0.390000 0.000000
-0.990000 -0.380000 0.000000
-0.990000 -0.370000 0.000000
-0.990000 -0.360000 0.000000
-0.990000 -0.350000 0.000000
-0.990000 -0.340000 0.000000
-0.990000 -0.330000 0.000000
-0.990000 -0.320000 0.000000
-0.990000 -0.310000 0.000000
-0.990000 -0.300000 0.000000
-0.990000 -0.290000 0.000000
-0.990000 -0.280000 0.000000
-0.990000 -0.270000 0.000000
-0.990000 -0.260000 0.000000
-0.990000 -0.250000 0.000000
-0.990000 -0.240000 0.000000
-0.990000 -0.230000 0.000000
-0.990000 -0.220000 0.000000
-0.990000 -0.210000 0.000000
-0.990000 -0.200000 0.000000
-0.990000 -0.190000 0.000000
-0.990000 -0.180000 0.000000
-0.990000 -0.170000 0.000000
-0.990000 -0.160000 0.000000
-0.990000 -0.150000 0.000000
-0.990000 -0.140000 0.000000
-0.990000 -0.130000 0.000000
-0.990000 -0.120000 0.000000
-0.990000 -0.110000 0.000000
-0.990000 -0.100000 0.000000
-0.990000 -0.090000 0.000000
-0.990000 -0.080000 0.000000
-0.990000 -0.070000 0.000000
-0.990000 -0.060000 0.000000
-0.990000 -0.050000 0.000000
-0.990000 -0.040000 0.000000
-0.990000 -0.030000 0.000000
-0.990000 -0.020000 0.000000
-0.990000 -0.010000 0.000000
-0.990000 0.000000 0.000000
-0.990000 0.010000 0.000000
-0.990000 0.020000 0.000000
-0.990000 0.030000 0.000000
-0.990000 0.040000 0.000000
-0.990000 0.050000 0.000000
-0.990000 0.060000 0.000000
-0.990000 0.070000 0.000000
-0.990000 0.080000 0.000000
-0.990000 0.090000 0.000000
-0.990000 0.100000 0.000000
-0.990000 0.110000 0.000000
-0.990000 0.120000 0.000000
-0.990000 0.130000 0.000000
-0.990000 0.140000 0.000000
-0.990000 0.150000 0.000000
-0.990000 0.160000 0.000000
-0.990000 0.170000 0.000000
-0.990000 0.180000 0.000000
-0.990000 0.190000 0.000000
-0.990000 0.200000 0.000000
-0.990000 0.210000 0.000000
-0.990000 0.220000 0.000000
-0.990000 0.230000 0.000000
-0.990000 0.240000 0.000000
-0.990000 0.250000 0.000000
-0.990000 0.260000 0.000000
-0.990000 0.270000 0.000000
-0.990000 0.280000 0.000000
-0.990000 0.290000 0.000000
-0.990000 0.300000 0.000000
-0.990000 0.310000 0.000000
-0.990000 0.320000 0.000000
-0.990000 0.330000 0.000000
-0.990000 0.340000 0.000000
-0.990000 0.350000 0.000000
-0.990000 0.360000 0.000000
-0.990000 0.370000 0.000000
-0.990000 0.380000 0.000000
-0.990000 0.390000 0.000000
-0.990000 0.400000 0.000000
-0.990000 0.410000 0.000000
-0.990000 0.420000 0.000000
-0.990000 0.430000 0.000000
[...]
POINT_DATA 40401
SCALARS phi FLOAT 1
LOOKUP_TABLE default
0.000000000000
0.000000000000
0.000000000000
0.000000000000
0.000000000000
0.000000000000
0.000000000000
0.000000000000
0.000000000000
0.000000000000
0.000000000000
0.000000000000
0.000000000000
0.000000000000
0.000000000000
0.000000000000
0.000000000000
0.000000000000
0.000000000000
0.000000000000
0.000000000000
0.000000000000
0.000000000000
0.000000000000
0.000000000000
0.000000000000
0.000000000000
0.000000000000
0.000000000000
0.000000000000
0.000000000000
0.000000000000
0.000000000000
0.000000000000
0.000000000000
0.000000000000
0.000000000000
0.000000000000
0.000000000000
0.000000000000
0.000000000000
0.000000000000
0.000000000000
0.000000000000
0.000000000000
0.000000000000
0.000000000000
0.000000000000
0.000000000000
0.000000000000
0.000000000000
0.000000000000
0.000000000000
0.000000000000
0.000000000000
0.000000000000
0.000000000000
0.000000000000
0.000000000000
0.000000000000
0.000000000000
0.000000000000
0.000000000000
0.000000000000
0.000000000000
0.000000000000
0.000000000000
0.000000000000
0.000000000000
0.000000000000
0.000000000000
0.000000000000
0.000000000000
0.000000000000
0.000000000000
0.000000000000
0.000000000000
0.000000000000
0.000000000000
0.000000000000
0.000000000000
0.000000000000
0.000000000000
0.000000000000
0.000000000000
0.000000000000
0.000000000000
0.000000000000
0.000000000000
0.000000000000
0.000000000000
0.000000000000
0.000000000000
0.000000000000
0.000000000000
0.000000000000
0.000000000000
0.000000000000
0.000000000000
0.000000000000
0.000000000000
0.000000000000
0.000000000000
0.000000000000
0.000000000000
0.000000000000
0.000000000000
0.000000000000
0.000000000000
0.000000000000
0.000000000000
0.000000000000
0.000000000000
0.000000000000
0.000000000000
0.000000000000
0.000000000000
0.000000000000
0.000000000000
0.000000000000
0.000000000000
0.000000000000
0.000000000000
0.000000000000
0.000000000000
0.000000000000
0.000000000000
0.000000000000
0.000000000000
0.000000000000
0.000000000000
0.000000000000
0.000000000000
0.000000000000
0.000000000000
0.000000000000
0.000000000000
0.000000000000
0.000000000000
0.000000000000
0.000000000000
0.000000000000
0.000000000000
0.000000000000
0.000000000000
0.000000000000
0.000000000000
0.000000000000
0.000000000000
0.000000000000
0.000000000000
0.000000000000
0.000000000000
0.000000000000
0.000000000000
0.000000000000
0.000000000000
0.000000000000
0.000000000000
0.000000000000
0.000000000000
0.000000000000
0.000000000000
0.000000000000
0.000000000000
0.000000000000
0.000000000000
0.000000000000
0.000000000000
0.000000000000
0.000000000000
0.000000000000
0.000000000000
0.000000000000
0.000000000000
0.000000000000
0.000000000000
0.000000000000
0.000000000000
0.000000000000
0.000000000000
0.000000000000
0.000000000000
0.000000000000
0.000000000000
0.000000000000
0.000000000000
0.000000000000
0.000000000000
0.000000000000
0.000000000000
0.000000000000
0.000000000000
0.000000000000
0.000000000000
0.000000000000
0.000000000000
0.000000000000
0.000000000000
0.000000000000
0.000000000000
0.000000000000
-0.000193770295
-0.000168682855
0.000505054298
0.000409059810
-0.000568768472
-0.000619557909
0.000328213659
0.000555626002
-0.000034152295
-0.000150824181
0.000120039509
-0.000146809757
-0.000522597859
-0.000059826332
0.000703954259
0.000595581730
-0.000159287994
-0.000405085243
0.000022297518
0.000258255571
0.000008032871
-0.000042002244
0.000520948230
0.001114971487
0.001029337640
0.000426516831
0.000048721910
0.000206565208
0.000481261367
0.000380173143
-0.000035462655
-0.000302033847
-0.000154170523
0.000196508172
0.000346569379
0.000147846257
-0.000183329608
-0.000324981703
-0.000168832793
0.000112913368
0.000259561185
0.000154372689
-0.000093188860
-0.000271828244
-0.000239800340
-0.000035177885
0.000182562858
0.000251835464
0.000134437948
-0.000079712852
-0.000237778761
-0.000238531099
-0.000086956477
0.000115087872
0.000243125697
0.000225679309
0.000079405533
-0.000106895382
-0.000232142778
-0.000232574510
-0.000116657568
0.000054719228
0.000195100956
0.000244969020
0.000184988341
0.000050375782
-0.000102362594
-0.000208624843
-0.000234702454
-0.000172933226
-0.000054551502
0.000080313777
0.000183413049
0.000228524313
0.000203154712
0.000122616652
0.000010087310
-0.000100531530
-0.000183958549
-0.000220986024
-0.000207960166
-0.000150771646
-0.000064931123
0.000030790674
0.000118078518
0.000182153090
0.000214556355
0.000212614418
0.000179549827
0.000122719115
0.000051285589
-0.000024038340
-0.000094982278
-0.000153161341
-0.000194977431
-0.000216734570
-0.000219616652
-0.000204153401
-0.000174245602
-0.000132915229
-0.000084367688
-0.000032382295
0.000020128316
0.000069811558
0.000115509364
0.000154909682
0.000188201121
0.000214318809
0.000234034585
0.000247442853
0.000255274211
0.000258426424
0.000257399842
0.000253316345
0.000246691203
0.000238249465
0.000228906495
0.000218647373
0.000208885775
0.000199077323
0.000190691507
0.000183371572
0.000177867317
0.000174732965
0.000173537495
0.000175793311
0.000180323508
0.000188731330
0.000200244233
0.000215429010
0.000234713857
0.000257376161
0.000284484868
0.000315025312
0.000349168814
0.000386700105
0.000426069734
0.000467482001
0.000508534378
0.000548266238
0.000584613936
0.000614907291
0.000636994462
0.000648033126
0.000644638767
0.000625270873
0.000586375081
0.000527347945
0.000447488243
0.000347163459
0.000229780960
0.000098981379
-0.000038596537
-0.000175191083
-0.000300786123
-0.000407241160
-0.000482019180
-0.000521217913
-0.000515526601
-0.000468567345
-0.000379505276
-0.000263064603
-0.000126339737
0.000007602634
0.000126119030
0.000211517207
0.000251874752
0.000246548635
0.000194867913
0.000117092283
0.000016946185
-0.000058778625
-0.000137291856
-0.000136380201
-0.000155001969
-0.000069289428
-0.000048438451
0.000047744737
0.000061489044
0.000089565634
0.000068564892
0.000035153536
-0.000004030139
-0.000029339268
-0.000050464751
-0.000032676854
-0.000020898350
0.000002417299
0.000020181134
0.000021095587
0.000015652991
0.000005541384
-0.000007532625
-0.000010521578
-0.000006448156
-0.000004364092
-0.000000719244
0.000007743090
0.000003285081
0.000000000000
0.000000000000
-0.000124822092
0.000546638516
0.000435582456
-0.000861430581
-0.000790939289
0.000753473827
0.000923083374
-0.000351506122
-0.000569127311
0.000194785837
0.000019039518
-0.000586272099
0.000069108374
0.001102350263
0.000573808248
-0.000809461156
-0.000885489226
0.000256328799
0.000662126732
-0.000095614612
-0.000447343847
0.000348140382
0.001012587929
0.000370736266
-0.000833659039
-0.001085106467
-0.000227115132
0.000485374784
0.000172341058
-0.000628102185
-0.000827922935
-0.000186636809
0.000518407028
0.000504186813
-0.000152088906
-0.000707663632
-0.000602930988
0.000017242238
0.000533813800
0.000499176901
0.000000215865
-0.000481257598
-0.000537157472
-0.000146458859
0.000352220648
0.000568483566
0.000359975502
-0.000097486054
-0.000460197005
-0.000485623826
-0.000169005712
0.000258543142
0.000522906633
0.000460682792
0.000129910347
-0.000267997668
-0.000498159440
-0.000446058940
-0.000150409508
0.000218807895
0.000473776409
0.000493945815
0.000283918414
-0.000048662343
-0.000349957194
-0.000494103891
-0.000431856191
-0.000200264340
0.000101433248
0.000359033243
0.000484259986
0.000444279496
0.000262516859
0.000005711451
-0.000245176489
-0.000418523764
-0.000473287787
-0.000403157212
-0.000235412561
-0.000016424628
0.000199638727
0.000367104149
0.000454535699
0.000451669868
0.000365451650
0.000217968519
0.000038477602
-0.000142300148
-0.000296764735
-0.000406329804
-0.000458698150
-0.000454180887
-0.000395674297
-0.000297344575
-0.000169532020
-0.000030912276
0.000108754468
0.000233911897
0.000339658220
0.000417199584
0.000466698618
0.000486324218
0.000479122363
0.000448529774
0.000397888526
0.000333617095
0.000257695778
0.000177326362
0.000092857021
0.000010408255
-0.000070467525
-0.000146096575
-0.000216524814
-0.000281109777
-0.000338795797
-0.000391477793
-0.000437341602
-0.000479276011
-0.000515942251
-0.000549291656
-0.000579672590
-0.000606950146
-0.000633197134
-0.000656749120
-0.000679855722
-0.000701272989
-0.000721325689
-0.000740780868
-0.000757313641
-0.000773094285
-0.000784771596
-0.000793322074
-0.000796820094
-0.000793188495
-0.000782300536
-0.000760375368
-0.000726667003
-0.000678966670
-0.000613989229
-0.000532219542
-0.000429844587
-0.000307984922
-0.000166250774
-0.000005695373
0.000170074076
0.000356343676
0.000548172031
0.000734114556
0.000908080813
0.001055170472
0.001166414060
0.001228681723
0.001234347540
0.001173828399
0.001049742667
0.000860126076
0.000620571938
0.000344303156
0.000056256600
-0.000217548479
-0.000448594265
-0.000611094668
-0.000689627650
-0.000667812696
-0.000564603454
-0.000379984916
-0.000165166824
0.000063167239
0.000243288608
0.000370989949
0.000391409414
0.000352490956
0.000212393374
0.000077419418
-0.000092542292
-0.000184046422
-0.000231829769
-0.000208370743
-0.000117161305
-0.000027774243
0.000071499692
0.000120025664
0.000118880953
0.000086695992
0.000021582727
-0.000034847668
-0.000057056644
-0.000065014935
-0.000035905213
-0.000002027592
0.000021549288
0.000032861692
0.000025101674
0.000005175500
-0.000007721820
-0.000009537822
-0.000015619059
-0.000007107112
0.000009057922
0.000000000000
0.000000000000
0.000225086280
0.000244963295
-0.000597193814
-0.000513517808
0.000737763835
0.000696483893
-0.000626401927
-0.000616449791
0.000510743847
0.000337827928
-0.000617177321
-0.000125768421
0.000975997848
0.000381189044
-0.001025856688
-0.000691539396
0.000869691164
0.000977341032
-0.000504010031
-0.001030676159
0.000266145507
0.001262038197
0.000406294850
-0.000890277613
-0.000576495516
0.000951649007
0.001555344537
0.000429730039
-0.000933623945
-0.000872998665
0.000361407826
0.001145734701
0.000568792059
-0.000617875770
-0.001046939108
-0.000302810048
0.000775258392
0.001094862970
0.000414995177
-0.000550434227
-0.000913697009
-0.000412481237
0.000447130729
0.000928372143
0.000665671719
-0.000081720925
-0.000727013313
-0.000803092288
-0.000299203043
0.000402194205
0.000813400522
0.000679991216
0.000114953210
-0.000512506013
-0.000818193215
-0.000643603355
-0.000105804119
0.000473993309
0.000790076670
0.000683634763
0.000237310891
-0.000321724753
-0.000715876935
-0.000781624304
-0.000500341412
-0.000017825318
0.000463156532
0.000746521639
0.000741798825
0.000463199235
0.000030764671
-0.000403596663
-0.000694192785
-0.000763695528
-0.000601891274
-0.000274801840
0.000120922874
0.000472168938
0.000699059669
0.000750746459
0.000633990855
0.000380008402
0.000058386772
-0.000269863567
-0.000535260555
-0.000703257054
-0.000745444676
-0.000672347548
-0.000497230144
-0.000259383631
0.000009391841
0.000268361981
0.000490518929
0.000652450825
0.000742893823
0.000760100819
0.000707214886
0.000598234375
0.000443340167
0.000263012172
0.000067196755
-0.000124849125
-0.000307399800
-0.000466821966
-0.000601978539
-0.000706353681
-0.000781437808
-0.000827481907
-0.000846056175
-0.000842755294
-0.000817563283
-0.000779210771
-0.000726103354
-0.000667284619
-0.000601141443
-0.000534146677
-0.000466724416
-0.000400931429
-0.000340216459
-0.000282551279
-0.000233220163
-0.000188780819
-0.000153416005
-0.000125745150
-0.000106334615
-0.000097514521
-0.000096572261
-0.000107764927
-0.000128458365
-0.000161092125
-0.000206326890
-0.000262973189
-0.000334214732
-0.000417628960
-0.000514350837
-0.000624427226
-0.000743754619
-0.000874338039
-0.001009079637
-0.001146781084
-0.001281475569
-0.001405921971
-0.001514355333
-0.001597728046
-0.001645989851
-0.001653604990
-0.001607935484
-0.001506357517
-0.001342810605
-0.001117071817
-0.000834709468
-0.000505089601
-0.000143085691
0.000227745952
0.000582863189
0.000894281854
0.001128842762
0.001267948657
0.001286256949
0.001184425197
0.000962231909
0.000653577369
0.000280169400
-0.000090125087
-0.000426022702
-0.000661942205
-0.000776235327
-0.000745676063
-0.000591130603
-0.000336943039
-0.000055142878
0.000217907380
0.000387293026
0.000474585247
0.000402804247
0.000272585745
0.000064834887
-0.000107906527
-0.000236773000
-0.000261602252
-0.000211217335
-0.000096190543
0.000021218200
0.000113433981
0.000143157380
0.000114054982
0.000048547513
-0.000016248714
-0.000064468989
-0.000070021734
-0.000046313563
-0.000007439566
0.000022353658
0.000035949208
0.000022462752
0.000008185845
-0.000001916074
-0.000022888078
-0.000008732199
0.000000000000
0.000000000000
0.000052937607
-0.000084989986
-0.000124360657
0.000191944399
0.000120542150
-0.000365830832
-0.000087759222
0.000635366042
0.000195079708
-0.000807367679
-0.000371790732
0.000821123920
0.000514976928
-0.000682289216
-0.000389766586
0.000886180266
0.000560810853
-0.001153379658
-0.001362797375
0.000511119733
0.001621812037
0.000317851449
-0.001283062695
-0.000748430153
0.000948553859
0.001074128518
-0.000731928649
-0.002019895381
-0.001038508558
0.000968093351
0.001550437740
0.000178512752
-0.001334060935
-0.001194232305
0.000336860859
0.001483426300
0.001041126783
-0.000449224031
-0.001452386353
-0.001063369822
0.000249072163
0.001236050319
0.001078009525
0.000000250186
-0.001049585897
-0.001249833130
-0.000515781414
0.000548063393
0.001154813648
0.000923756882
0.000059971200
-0.000823235754
-0.001169544195
-0.000787160115
0.000049533681
0.000835684244
0.001124611986
0.000786605190
0.000030598201
-0.000729521547
-0.001112150746
-0.000949805760
-0.000344204609
0.000404250596
0.000961862375
0.001097159562
0.000781805319
0.000159607844
-0.000508527310
-0.000980989906
-0.001094480799
-0.000839172815
-0.000312704113
0.000294899565
0.000803917177
0.001065573429
0.001031609376
0.000722827656
0.000242736918
-0.000287572694
-0.000736971726
-0.001017028427
-0.001077597337
-0.000924880284
-0.000601653177
-0.000179141117
0.000263313393
0.000653558288
0.000934970109
0.001077022087
0.001069603667
0.000927892622
0.000677505942
0.000358823558
0.000008257138
-0.000332662380
-0.000637229244
-0.000877608328
-0.001045109436
-0.001129217883
-0.001136838960
-0.001071253061
-0.000947206035
-0.000776017334
-0.000572328024
-0.000350480323
-0.000119982769
0.000105350990
0.000322289474
0.000520110506
0.000699786113
0.000855699796
0.000989467590
0.001101741983
0.001191921391
0.001266341984
0.001321791114
0.001367367582
0.001399644034
0.001426024746
0.001446343170
0.001462748689
0.001479884657
0.001494673566
0.001514140586
0.001534024559
0.001558586688
0.001587157390
0.001617804142
0.001654082106
0.001689859777
0.001728051528
0.001764002563
0.001794638337
0.001819451438
0.001830256542
0.001826495099
0.001801467446
0.001749095268
0.001667813874
0.001548393876
0.001390411945
0.001190299946
0.000945568958
0.000661704549
0.000341003852
-0.000007014378
-0.000366423643
-0.000724977344
-0.001056786327
-0.001341912856
-0.001555142693
-0.001674668547
-0.001679868147
-0.001566292632
-0.001324353441
-0.000976749301
-0.000541229338
-0.000063547087
0.000412581977
0.000823690522
0.001130317507
0.001275765994
0.001250583930
0.001051257974
0.000709276281
0.000285958843
-0.000149011068
-0.000514814051
-0.000742360306
-0.000807108673
-0.000673777441
-0.000440472558
-0.000096004992
0.000188461035
0.000412582566
0.000479212451
0.000407356953
0.000234971463
0.000013205300
-0.000167647769
-0.000257478555
-0.000257419969
-0.000153084422
-0.000026668641
0.000084437735
0.000142263045
0.000122541907
0.000067305445
-0.000006034287
-0.000060930150
-0.000067414760
-0.000046052697
-0.000010239040
0.000026017474
0.000026093985
0.000027454848
0.000008359729
-0.000019056859
0.000000000000
0.000000000000
0.000158230783
0.000113819863
-0.000375513207
-0.000326277806
0.000288376921
0.000529756391
0.000185794856
-0.000379449988
-0.000665708855
-0.000122605950
0.000749467186
0.000603096757
-0.000358325972
-0.000449139080
0.000318640759
0.000115380029
-0.001047669678
-0.000933956999
0.000801754826
0.001504311212
-0.000142435772
-0.001700872938
-0.000766833904
0.001212896370
0.001207023338
-0.000739889149
-0.001633245984
-0.000002956500
0.002004186992
0.001661994554
-0.000666335708
-0.002130118464
-0.001063687132
0.001121098149
0.001842039877
0.000381091742
-0.001540138175
-0.001847508794
-0.000303905607
0.001475298197
0.001799878126
0.000481459371
-0.001184138543
-0.001750556880
-0.000832801443
0.000712418772
0.001646230410
0.001317521334
0.000065267773
-0.001163565164
-0.001539219893
-0.000873072205
0.000334389321
0.001307167300
0.001469149028
0.000781317918
-0.000329021606
-0.001222382029
-0.001444714559
-0.000906993116
0.000075059980
0.001011643357
0.001456928849
0.001239331271
0.000479415506
-0.000466688194
-0.001207516970
-0.001453586238
-0.001141992377
-0.000411168067
0.000451341485
0.001148969834
0.001456018589
0.001303080727
0.000757477067
0.000006245154
-0.000734535481
-0.001263211974
-0.001463089139
-0.001302382807
-0.000845655619
-0.000210417581
0.000453987827
0.001015234910
0.001369608589
0.001471796268
0.001316923106
0.000955828338
0.000451474252
-0.000101965786
-0.000635305505
-0.001068794562
-0.001369846474
-0.001502028329
-0.001477128608
-0.001300225599
-0.001010430243
-0.000636750782
-0.000221890317
0.000199472865
0.000598379368
0.000945852827
0.001233095077
0.001440918941
0.001577831248
0.001634279145
0.001628117025
0.001558065369
0.001442490093
0.001287133996
0.001104385646
0.000905461029
0.000694515938
0.000485369277
0.000276172965
0.000078967449
-0.000109049239
-0.000281977996
-0.000438958895
-0.000581836167
-0.000705221049
-0.000815633472
-0.000906973975
-0.000983978370
-0.001045325670
-0.001088848021
-0.001119789161
-0.001130079286
-0.001126795444
-0.001102758085
-0.001059538355
-0.000996641767
-0.000908344550
-0.000798785782
-0.000661898008
-0.000498786092
-0.000311157343
-0.000094602671
0.000142224157
0.000401192736
0.000674162092
0.000952158057
0.001228242928
0.001486634528
0.001712831367
0.001894378794
0.002007431210
0.002043706568
0.001983975678
0.001821599731
0.001554164229
0.001188611324
0.000737617481
0.000236282616
-0.000287583256
-0.000780437703
-0.001197351556
-0.001489548261
-0.001619715552
-0.001559451397
-0.001317583356
-0.000908870464
-0.000391182502
0.000160765834
0.000671106158
0.001043859228
0.001231019739
0.001185136126
0.000934260404
0.000527136734
0.000043332341
-0.000375871707
-0.000690405971
-0.000779040848
-0.000680072813
-0.000413881888
-0.000070890040
0.000231014223
0.000428983446
0.000456235673
0.000336362981
0.000131168096
-0.000077208831
-0.000229577930
-0.000246735011
-0.000189257487
-0.000058244856
0.000063003886
0.000119527960
0.000127487121
0.000066278195
-0.000006638213
-0.000046918791
-0.000066838122
-0.000039097711
-0.000002297903
0.000014699826
0.000039089946
0.000008658703
0.000000000000
0.000000000000
0.000130777311
-0.000475685645
-0.000431930472
0.000690445218
0.000733789822
-0.000455639762
-0.000743616284
0.000008012798
0.000373410859
0.000282236664
0.000198622997
-0.000110091228
-0.000407654261
-0.000151338323
0.000065802379
-0.000382208079
-0.000563900982
0.000223540793
0.000629179832
-0.000442075609
-0.001386943975
-0.000333071677
0.001427078914
0.001174785932
-0.000864391420
-0.001663976893
0.000014215159
0.001707319303
0.000852027094
-0.001499547273
-0.002126432921
-0.000023708070
0.002314904279
0.002110715036
-0.000322595652
-0.002139034457
-0.001360864412
0.001035950811
0.002425174426
0.001412776786
-0.000914054582
-0.002290849120
-0.001528702053
0.000554306954
0.002090463585
0.001852559387
0.000166372233
-0.001571009653
-0.002065862280
-0.001070023086
0.000617342218
0.001810883420
0.001781327126
0.000633125974
-0.000860465693
-0.001802294342
-0.001696784935
-0.000661799836
0.000692275970
0.001658267274
0.001766024915
0.001018949317
-0.000201493608
-0.001305955582
-0.001828077387
-0.001560569552
-0.000663968481
0.000489807835
0.001433794292
0.001842657105
0.001584883186
0.000794199288
-0.000252834272
-0.001199848389
-0.001774544451
-0.001818243716
-0.001359507146
-0.000537872096
0.000401502942
0.001235169745
0.001758763776
0.001890482741
0.001610388358
0.001018700955
0.000234193773
-0.000571078506
-0.001268576276