# vtk DataFile Version 2.0
TITLE = "Quad data"
ASCII
DATASET STRUCTURED_GRID
DIMENSIONS 201 201 1
POINTS 40401 FLOAT
-1.000000 -1.000000 0.000000
-1.000000 -0.990000 0.000000
-1.000000 -0.980000 0.000000
-1.000000 -0.970000 0.000000
-1.000000 -0.960000 0.000000
-1.000000 -0.950000 0.000000
-1.000000 -0.940000 0.000000
-1.000000 -0.930000 0.000000
-1.000000 -0.920000 0.000000
-1.000000 -0.910000 0.000000
-1.000000 -0.900000 0.000000
-1.000000 -0.890000 0.000000
-1.000000 -0.880000 0.000000
-1.000000 -0.870000 0.000000
-1.000000 -0.860000 0.000000
-1.000000 -0.850000 0.000000
-1.000000 -0.840000 0.000000
-1.000000 -0.830000 0.000000
-1.000000 -0.820000 0.000000
-1.000000 -0.810000 0.000000
-1.000000 -0.800000 0.000000
-1.000000 -0.790000 0.000000
-1.000000 -0.780000 0.000000
-1.000000 -0.770000 0.000000
-1.000000 -0.760000 0.000000
-1.000000 -0.750000 0.000000
-1.000000 -0.740000 0.000000
-1.000000 -0.730000 0.000000
-1.000000 -0.720000 0.000000
-1.000000 -0.710000 0.000000
-1.000000 -0.700000 0.000000
-1.000000 -0.690000 0.000000
-1.000000 -0.680000 0.000000
-1.000000 -0.670000 0.000000
-1.000000 -0.660000 0.000000
-1.000000 -0.650000 0.000000
-1.000000 -0.640000 0.000000
-1.000000 -0.630000 0.000000
-1.000000 -0.620000 0.000000
-1.000000 -0.610000 0.000000
-1.000000 -0.600000 0.000000
-1.000000 -0.590000 0.000000
-1.000000 -0.580000 0.000000
-1.000000 -0.570000 0.000000
-1.000000 -0.560000 0.000000
-1.000000 -0.550000 0.000000
-1.000000 -0.540000 0.000000
-1.000000 -0.530000 0.000000
-1.000000 -0.520000 0.000000
-1.000000 -0.510000 0.000000
-1.000000 -0.500000 0.000000
-1.000000 -0.490000 0.000000
-1.000000 -0.480000 0.000000
-1.000000 -0.470000 0.000000
-1.000000 -0.460000 0.000000
-1.000000 -0.450000 0.000000
-1.000000 -0.440000 0.000000
-1.000000 -0.430000 0.000000
-1.000000 -0.420000 0.000000
-1.000000 -0.410000 0.000000
-1.000000 -0.400000 0.000000
-1.000000 -0.390000 0.000000
-1.000000 -0.380000 0.000000
-1.000000 -0.370000 0.000000
-1.000000 -0.360000 0.000000
-1.000000 -0.350000 0.000000
-1.000000 -0.340000 0.000000
-1.000000 -0.330000 0.000000
-1.000000 -0.320000 0.000000
-1.000000 -0.310000 0.000000
-1.000000 -0.300000 0.000000
-1.000000 -0.290000 0.000000
-1.000000 -0.280000 0.000000
-1.000000 -0.270000 0.000000
-1.000000 -0.260000 0.000000
-1.000000 -0.250000 0.000000
-1.000000 -0.240000 0.000000
-1.000000 -0.230000 0.000000
-1.000000 -0.220000 0.000000
-1.000000 -0.210000 0.000000
-1.000000 -0.200000 0.000000
-1.000000 -0.190000 0.000000
-1.000000 -0.180000 0.000000
-1.000000 -0.170000 0.000000
-1.000000 -0.160000 0.000000
-1.000000 -0.150000 0.000000
-1.000000 -0.140000 0.000000
-1.000000 -0.130000 0.000000
-1.000000 -0.120000 0.000000
-1.000000 -0.110000 0.000000
-1.000000 -0.100000 0.000000
-1.000000 -0.090000 0.000000
-1.000000 -0.080000 0.000000
-1.000000 -0.070000 0.000000
-1.000000 -0.060000 0.000000
-1.000000 -0.050000 0.000000
-1.000000 -0.040000 0.000000
-1.000000 -0.030000 0.000000
-1.000000 -0.020000 0.000000
-1.000000 -0.010000 0.000000
-1.000000 0.000000 0.000000
-1.000000 0.010000 0.000000
-1.000000 0.020000 0.000000
-1.000000 0.030000 0.000000
-1.000000 0.040000 0.000000
-1.000000 0.050000 0.000000
-1.000000 0.060000 0.000000
-1.000000 0.070000 0.000000
-1.000000 0.080000 0.000000
-1.000000 0.090000 0.000000
-1.000000 0.100000 0.000000
-1.000000 0.110000 0.000000
-1.000000 0.120000 0.000000
-1.000000 0.130000 0.000000
-1.000000 0.140000 0.000000
-1.000000 0.150000 0.000000
-1.000000 0.160000 0.000000
-1.000000 0.170000 0.000000
-1.000000 0.180000 0.000000
-1.000000 0.190000 0.000000
-1.000000 0.200000 0.000000
-1.000000 0.210000 0.000000
-1.000000 0.220000 0.000000
-1.000000 0.230000 0.000000
-1.000000 0.240000 0.000000
-1.000000 0.250000 0.000000
-1.000000 0.260000 0.000000
-1.000000 0.270000 0.000000
-1.000000 0.280000 0.000000
-1.000000 0.290000 0.000000
-1.000000 0.300000 0.000000
-1.000000 0.310000 0.000000
-1.000000 0.320000 0.000000
-1.000000 0.330000 0.000000
-1.000000 0.340000 0.000000
-1.000000 0.350000 0.000000
-1.000000 0.360000 0.000000
-1.000000 0.370000 0.000000
-1.000000 0.380000 0.000000
-1.000000 0.390000 0.000000
-1.000000 0.400000 0.000000
-1.000000 0.410000 0.000000
-1.000000 0.420000 0.000000
-1.000000 0.430000 0.000000
-1.000000 0.440000 0.000000
-1.000000 0.450000 0.000000
-1.000000 0.460000 0.000000
-1.000000 0.470000 0.000000
-1.000000 0.480000 0.000000
-1.000000 0.490000 0.000000
-1.000000 0.500000 0.000000
-1.000000 0.510000 0.000000
-1.000000 0.520000 0.000000
-1.000000 0.530000 0.000000
-1.000000 0.540000 0.000000
-1.000000 0.550000 0.000000
-1.000000 0.560000 0.000000
-1.000000 0.570000 0.000000
-1.000000 0.580000 0.000000
-1.000000 0.590000 0.000000
-1.000000 0.600000 0.000000
-1.000000 0.610000 0.000000
-1.000000 0.620000 0.000000
-1.000000 0.630000 0.000000
-1.000000 0.640000 0.000000
-1.000000 0.650000 0.000000
-1.000000 0.660000 0.000000
-1.000000 0.670000 0.000000
-1.000000 0.680000 0.000000
-1.000000 0.690000 0.000000
-1.000000 0.700000 0.000000
-1.000000 0.710000 0.000000
-1.000000 0.720000 0.000000
-1.000000 0.730000 0.000000
-1.000000 0.740000 0.000000
-1.000000 0.750000 0.000000
-1.000000 0.760000 0.000000
-1.000000 0.770000 0.000000
-1.000000 0.780000 0.000000
-1.000000 0.790000 0.000000
-1.000000 0.800000 0.000000
-1.000000 0.810000 0.000000
-1.000000 0.820000 0.000000
-1.000000 0.830000 0.000000
-1.000000 0.840000 0.000000
-1.000000 0.850000 0.000000
-1.000000 0.860000 0.000000
-1.000000 0.870000 0.000000
-1.000000 0.880000 0.000000
-1.000000 0.890000 0.000000
-1.000000 0.900000 0.000000
-1.000000 0.910000 0.000000
-1.000000 0.920000 0.000000
-1.000000 0.930000 0.000000
-1.000000 0.940000 0.000000
-1.000000 0.950000 0.000000
-1.000000 0.960000 0.000000
-1.000000 0.970000 0.000000
-1.000000 0.980000 0.000000
-1.000000 0.990000 0.000000
-1.000000 1.000000 0.000000
-0.990000 -1.000000 0.000000
-0.990000 -0.990000 0.000000
-0.990000 -0.980000 0.000000
-0.990000 -0.970000 0.000000
-0.990000 -0.960000 0.000000
-0.990000 -0.950000 0.000000
-0.990000 -0.940000 0.000000
-0.990000 -0.930000 0.000000
-0.990000 -0.920000 0.000000
-0.990000 -0.910000 0.000000
-0.990000 -0.900000 0.000000
-0.990000 -0.890000 0.000000
-0.990000 -0.880000 0.000000
-0.990000 -0.870000 0.000000
-0.990000 -0.860000 0.000000
-0.990000 -0.850000 0.000000
-0.990000 -0.840000 0.000000
-0.990000 -0.830000 0.000000
-0.990000 -0.820000 0.000000
-0.990000 -0.810000 0.000000
-0.990000 -0.800000 0.000000
-0.990000 -0.790000 0.000000
-0.990000 -0.780000 0.000000
-0.990000 -0.770000 0.000000
-0.990000 -0.760000 0.000000
-0.990000 -0.750000 0.000000
-0.990000 -0.740000 0.000000
-0.990000 -0.730000 0.000000
-0.990000 -0.720000 0.000000
-0.990000 -0.710000 0.000000
-0.990000 -0.700000 0.000000
-0.990000 -0.690000 0.000000
-0.990000 -0.680000 0.000000
-0.990000 -0.670000 0.000000
-0.990000 -0.660000 0.000000
-0.990000 -0.650000 0.000000
-0.990000 -0.640000 0.000000
-0.990000 -0.630000 0.000000
-0.990000 -0.620000 0.000000
-0.990000 -0.610000 0.000000
-0.990000 -0.600000 0.000000
-0.990000 -0.590000 0.000000
-0.990000 -0.580000 0.000000
-0.990000 -0.570000 0.000000
-0.990000 -0.560000 0.000000
-0.990000 -0.550000 0.000000
-0.990000 -0.540000 0.000000
-0.990000 -0.530000 0.000000
-0.990000 -0.520000 0.000000
-0.990000 -0.510000 0.000000
-0.990000 -0.500000 0.000000
-0.990000 -0.490000 0.000000
-0.990000 -0.480000 0.000000
-0.990000 -0.470000 0.000000
-0.990000 -0.460000 0.000000
-0.990000 -0.450000 0.000000
-0.990000 -0.440000 0.000000
-0.990000 -0.430000 0.000000
-0.990000 -0.420000 0.000000
-0.990000 -0.410000 0.000000
-0.990000 -0.400000 0.000000
-0.990000 -0.390000 0.000000
-0.990000 -0.380000 0.000000
-0.990000 -0.370000 0.000000
-0.990000 -0.360000 0.000000
-0.990000 -0.350000 0.000000
-0.990000 -0.340000 0.000000
-0.990000 -0.330000 0.000000
-0.990000 -0.320000 0.000000
-0.990000 -0.310000 0.000000
-0.990000 -0.300000 0.000000
-0.990000 -0.290000 0.000000
-0.990000 -0.280000 0.000000
-0.990000 -0.270000 0.000000
-0.990000 -0.260000 0.000000
-0.990000 -0.250000 0.000000
-0.990000 -0.240000 0.000000
-0.990000 -0.230000 0.000000
-0.990000 -0.220000 0.000000
-0.990000 -0.210000 0.000000
-0.990000 -0.200000 0.000000
-0.990000 -0.190000 0.000000
-0.990000 -0.180000 0.000000
-0.990000 -0.170000 0.000000
-0.990000 -0.160000 0.000000
-0.990000 -0.150000 0.000000
-0.990000 -0.140000 0.000000
-0.990000 -0.130000 0.000000
-0.990000 -0.120000 0.000000
-0.990000 -0.110000 0.000000
-0.990000 -0.100000 0.000000
-0.990000 -0.090000 0.000000
-0.990000 -0.080000 0.000000
-0.990000 -0.070000 0.000000
-0.990000 -0.060000 0.000000
-0.990000 -0.050000 0.000000
-0.990000 -0.040000 0.000000
-0.990000 -0.030000 0.000000
-0.990000 -0.020000 0.000000
-0.990000 -0.010000 0.000000
-0.990000 0.000000 0.000000
-0.990000 0.010000 0.000000
-0.990000 0.020000 0.000000
-0.990000 0.030000 0.000000
-0.990000 0.040000 0.000000
-0.990000 0.050000 0.000000
-0.990000 0.060000 0.000000
-0.990000 0.070000 0.000000
-0.990000 0.080000 0.000000
-0.990000 0.090000 0.000000
-0.990000 0.100000 0.000000
-0.990000 0.110000 0.000000
-0.990000 0.120000 0.000000
-0.990000 0.130000 0.000000
-0.990000 0.140000 0.000000
-0.990000 0.150000 0.000000
-0.990000 0.160000 0.000000
-0.990000 0.170000 0.000000
-0.990000 0.180000 0.000000
-0.990000 0.190000 0.000000
-0.990000 0.200000 0.000000
-0.990000 0.210000 0.000000
-0.990000 0.220000 0.000000
-0.990000 0.230000 0.000000
-0.990000 0.240000 0.000000
-0.990000 0.250000 0.000000
-0.990000 0.260000 0.000000
-0.990000 0.270000 0.000000
-0.990000 0.280000 0.000000
-0.990000 0.290000 0.000000
-0.990000 0.300000 0.000000
-0.990000 0.310000 0.000000
-0.990000 0.320000 0.000000
-0.990000 0.330000 0.000000
-0.990000 0.340000 0.000000
-0.990000 0.350000 0.000000
-0.990000 0.360000 0.000000
-0.990000 0.370000 0.000000
-0.990000 0.380000 0.000000
-0.990000 0.390000 0.000000
-0.990000 0.400000 0.000000
-0.990000 0.410000 0.000000
-0.990000 0.420000 0.000000
-0.990000 0.430000 0.000000
[...]
POINT_DATA 40401
SCALARS phi FLOAT 1
LOOKUP_TABLE default
0.000000000000
0.000000000000
0.000000000000
0.000000000000
0.000000000000
0.000000000000
0.000000000000
0.000000000000
0.000000000000
0.000000000000
0.000000000000
0.000000000000
0.000000000000
0.000000000000
0.000000000000
0.000000000000
0.000000000000
0.000000000000
0.000000000000
0.000000000000
0.000000000000
0.000000000000
0.000000000000
0.000000000000
0.000000000000
0.000000000000
0.000000000000
0.000000000000
0.000000000000
0.000000000000
0.000000000000
0.000000000000
0.000000000000
0.000000000000
0.000000000000
0.000000000000
0.000000000000
0.000000000000
0.000000000000
0.000000000000
0.000000000000
0.000000000000
0.000000000000
0.000000000000
0.000000000000
0.000000000000
0.000000000000
0.000000000000
0.000000000000
0.000000000000
0.000000000000
0.000000000000
0.000000000000
0.000000000000
0.000000000000
0.000000000000
0.000000000000
0.000000000000
0.000000000000
0.000000000000
0.000000000000
0.000000000000
0.000000000000
0.000000000000
0.000000000000
0.000000000000
0.000000000000
0.000000000000
0.000000000000
0.000000000000
0.000000000000
0.000000000000
0.000000000000
0.000000000000
0.000000000000
0.000000000000
0.000000000000
0.000000000000
0.000000000000
0.000000000000
0.000000000000
0.000000000000
0.000000000000
0.000000000000
0.000000000000
0.000000000000
0.000000000000
0.000000000000
0.000000000000
0.000000000000
0.000000000000
0.000000000000
0.000000000000
0.000000000000
0.000000000000
0.000000000000
0.000000000000
0.000000000000
0.000000000000
0.000000000000
0.000000000000
0.000000000000
0.000000000000
0.000000000000
0.000000000000
0.000000000000
0.000000000000
0.000000000000
0.000000000000
0.000000000000
0.000000000000
0.000000000000
0.000000000000
0.000000000000
0.000000000000
0.000000000000
0.000000000000
0.000000000000
0.000000000000
0.000000000000
0.000000000000
0.000000000000
0.000000000000
0.000000000000
0.000000000000
0.000000000000
0.000000000000
0.000000000000
0.000000000000
0.000000000000
0.000000000000
0.000000000000
0.000000000000
0.000000000000
0.000000000000
0.000000000000
0.000000000000
0.000000000000
0.000000000000
0.000000000000
0.000000000000
0.000000000000
0.000000000000
0.000000000000
0.000000000000
0.000000000000
0.000000000000
0.000000000000
0.000000000000
0.000000000000
0.000000000000
0.000000000000
0.000000000000
0.000000000000
0.000000000000
0.000000000000
0.000000000000
0.000000000000
0.000000000000
0.000000000000
0.000000000000
0.000000000000
0.000000000000
0.000000000000
0.000000000000
0.000000000000
0.000000000000
0.000000000000
0.000000000000
0.000000000000
0.000000000000
0.000000000000
0.000000000000
0.000000000000
0.000000000000
0.000000000000
0.000000000000
0.000000000000
0.000000000000
0.000000000000
0.000000000000
0.000000000000
0.000000000000
0.000000000000
0.000000000000
0.000000000000
0.000000000000
0.000000000000
0.000000000000
0.000000000000
0.000000000000
0.000000000000
0.000000000000
0.000000000000
0.000000000000
0.000000000000
0.000000000000
0.000000000000
0.000000000000
0.000000000000
0.000000000000
0.000000000000
4889669965.930750846863
3293918936.838430404663
-11948393815.959156036377
-4919757418.551246643066
13781368855.873779296875
4740294452.473367691040
-11623454255.854846954346
-3558965887.387354373932
7956896284.450620651245
2222862278.600486278534
-4619346618.939294815063
-1192000053.510567188263
2324795541.848917484283
558397054.141652941704
-1024623406.487993121147
-230734441.044745862484
395683128.176536619663
84503180.294422745705
-132265512.251527413726
-27479740.384557906538
36811657.168995700777
7950743.874593532644
-7493791.425496578217
-2071452.052508592373
371348.554546535830
511671.330374669051
634021.148814795539
-138217.272556405194
-435013.016188346141
48584.347598298511
198369.911473707383
-21316.068128425693
-75037.755015992094
9728.070273209363
25133.299190288421
-4165.050197239245
-7678.909638287667
1626.229631727583
2177.250492322740
-577.733424736025
-579.622018173152
187.221491501851
146.110466623145
-55.350045149335
-35.073907763891
14.814410020682
8.009046867992
-3.520398500612
-1.717416373442
0.708187676765
0.331800373869
-0.113883852872
-0.069434451559
-0.003324453717
0.015549037475
0.018966302781
0.003791992213
-0.009271206587
-0.010847750139
-0.009011958230
-0.006000186992
-0.000123454641
0.005167141642
0.006680933715
0.004387709306
0.000400843322
-0.003702266020
-0.006352036548
-0.006995421197
-0.005537624420
-0.002881309118
0.000160876018
0.002638440319
0.004127952849
0.004335901178
0.003433344771
0.001631387097
-0.000580850151
-0.002746829702
-0.004367249303
-0.005099852752
-0.004781500249
-0.003471304281
-0.001386924792
0.001061730685
0.003483953674
0.005406534390
0.006556791531
0.006711701566
0.005897071993
0.004224009777
0.001965124991
-0.000589349753
-0.003087955028
-0.005277939819
-0.006891782425
-0.007839179160
-0.008036384050
-0.007541780550
-0.006450778790
-0.004883354125
-0.003038422962
-0.001004586640
0.001004177979
0.002974179378
0.004758386258
0.006381139118
0.007791513867
0.008995151345
0.010002078836
0.010763408159
0.011333134941
0.011610651518
0.011681190513
0.011477602263
0.011097749234
0.010550645541
0.009945286997
0.009317840545
0.008705692364
0.008159232547
0.007614766858
0.007094604371
0.006554057938
0.006064390596
0.005571948472
0.005284356258
0.005119213460
0.005219356475
0.005462707148
0.005993666391
0.006569940747
0.007449915827
0.008557840245
0.010040486258
0.011871401550
0.014236420459
0.016809202419
0.019793186983
0.023136446943
0.026848866426
0.030825336488
0.035399000760
0.039888831715
0.044334399163
0.048721323466
0.052782088239
0.056296046903
0.060184601210
0.061454957193
0.058621576817
0.058882847197
0.068148812029
0.061019432749
0.009938090003
-0.001955039378
0.169030997986
0.227903705973
-0.498672222205
-0.948121166696
1.894462910458
4.134425007845
-7.131060645532
-17.389856248946
26.525738596949
69.817938700141
-97.990936210615
-268.883480594033
354.631802679527
988.247163999866
-1246.656763082801
-3453.057337372513
4218.958758729883
11423.398717070198
-13630.929878827641
-35629.090720241831
41721.903893928640
104311.686824490171
-120098.965094724597
-285307.355693677790
322779.019790635561
725082.817494778428
-803858.329317228869
-1701158.223545148969
1839566.736559472745
3654963.095994417556
-3829868.198084753007
-7116183.466071812436
7162527.168809726834
12376294.242399349809
-11823540.487949263304
-18824149.861836556345
16773116.054909212515
24185058.736921325326
-19507371.435005791485
-24521098.578689649701
16719428.212761294097
16208180.215434145182
-6806114.386047432199
0.000000000000
0.000000000000
-3273968398.110958099365
16640603195.748270034790
7986323011.397150993347
-24865021111.486373901367
-9180502829.114450454712
23993023197.167957305908
7703978504.484334945679
-18061815717.779872894287
-5238784794.893897056580
11322881346.311399459839
3017677043.590652465820
-6095933332.100513458252
-1507030875.248716831207
2862156864.106423854828
661068721.178760528564
-1178141009.151476383209
-256521214.741710126400
422914950.149338424206
88345273.312268614769
-129364596.402773529291
-27054812.712182469666
31419952.429738104343
7415056.813419347629
-4450048.803978112526
-1873235.464150102111
-879526.792041864595
480183.851390265976
1054460.065708953887
-149116.083639111515
-553514.478830853361
60211.600511997778
225737.355752510746
-27278.767526174677
-79624.514456553938
12012.457160139616
25321.887675852584
-4869.959130689931
-7420.129771038097
1798.309737034143
2031.394873232609
-605.546130021587
-524.684710675371
186.190777791640
128.698981587192
-52.146797437238
-30.072441971194
13.160584182714
6.693767607316
-2.890227091783
-1.414767890646
0.476378816536
0.261340880995
-0.016249856637
-0.012831675779
-0.003637201139
-0.001556385271
-0.005985529281
-0.018357657172
-0.013130273826
0.006620805249
0.019278937835
0.019162675496
0.011411985935
0.000706652228
-0.009055033003
-0.013795787191
-0.012330742393
-0.006219323157
0.001420861644
0.007897934549
0.011212952320
0.010891471830
0.007384251692
0.002028753420
-0.003774969958
-0.008607369728
-0.011546118303
-0.011982683857
-0.010022099520
-0.006052659444
-0.000971134387
0.004265164797
0.008650233150
0.011388784664
0.012024446536
0.010480186716
0.007069595766
0.002401778976
-0.002741731495
-0.007594610272
-0.011410687313
-0.013794326998
-0.014366661589
-0.013276612005
-0.010566820933
-0.006744197642
-0.002124917000
0.002744986230
0.007472991364
0.011696621403
0.015086669145
0.017516717642
0.018801952469
0.018992390778
0.018075435476
0.016199988796
0.013509961503
0.010189760755
0.006491971936
0.002573870009
-0.001313098482
-0.005090540458
-0.008620561567
-0.011919252078
-0.014994272000
-0.017882658421
-0.020689702828
-0.023336127526
-0.025950660221
-0.028324676135
-0.030607616930
-0.032584442623
-0.034489361609
-0.036231768140
-0.038051236984
-0.039967485351
-0.042042793026
-0.044272509574
-0.046540624205
-0.048865624082
-0.051142413775
-0.053539908065
-0.056010335231
-0.058736759514
-0.061474890076
-0.064286326930
-0.066724806166
-0.068974015678
-0.070624495210
-0.072030061222
-0.072703600789
-0.072710844889
-0.071317481358
-0.068715391499
-0.064495959330
-0.059130847459
-0.051686829597
-0.042333533433
-0.032149672780
-0.022369213486
-0.007026719401
0.016593633472
0.026237409246
-0.001010267589
0.012463425436
0.181733316592
0.227471296685
-0.410129278956
-0.731978928001
1.816388930129
3.599144885420
-6.558607323955
-15.227683942219
24.674769383747
62.727493900691
-91.827407032275
-247.620659025387
336.528337936879
934.124880039548
-1204.254652995533
-3357.025499294327
4166.685175515940
11444.118535641754
-13820.499830873019
-36855.947399509430
43593.603765007232
111656.685991719511
-129784.427236788470
-316772.283597506757
362053.275481655495
837343.419967950322
-939458.025174284470
-2050190.732327778358
2249580.591064302251
4616333.939230474643
-4926088.176481840201
-9471968.973200961947
9755121.991369567811
17495461.786051478237
-17213772.619084842503
-28592189.542070463300
26494544.603994764388
40254727.527654714882
-34354881.986494883895
-46572226.246457122266
35063428.508297532797
39792917.203820660710
-23271707.921923283488
-16178270.015390992165
0.000000000000
0.000000000000
-11918611390.074348449707
-7902673933.334194183350
29066403700.836917877197
11773314448.129957199097
-33424869216.663093566895
-11306140733.874076843262
28086907666.177402496338
8455499049.703040122986
-19144484938.949974060059
-5258106691.071885108948
11059871982.225868225098
2806191869.051516056061
-5535050411.105410575867
-1307876015.523374080658
2423653021.731078147888
537589410.591589927673
-928582206.881361961365
-195902050.704436331987
307186874.359002411366
63469973.648710824549
-84127837.903185173869
-18367006.592991940677
16510158.418411007151
4834429.773352500051
-464894.938692301512
-1232411.894520193338
-1613691.344701970462
351602.922958612733
1051716.215150920907
-128372.843014532438
-470500.403312529903
56005.913422742000
175897.041838377365
-24925.304926520537
-58402.017842141271
10398.217802816929
17717.685970004466
-3969.419556642884
-4994.012342478311
1382.958229213963
1322.839132129471
-440.372688983783
-332.002985494619
128.033045036912
79.368990695693
-33.688527926048
-18.043438984818
7.852266574421
3.842289251732
-1.547659025917
-0.736937954108
0.247502397055
0.159993523147
0.007421292963
-0.044749666553
-0.052417771722
-0.012968832036
0.022760340166
0.031569856946
0.028191395072
0.017207293304
-0.002251354724
-0.019438043900
-0.024600909464
-0.016898420453
-0.002178188973
0.012845487410
0.022276792071
0.023581205633
0.017294158046
0.006669980552
-0.004626184085
-0.013173513793
-0.017119594353
-0.015791771136
-0.010260291965
-0.002032472427
0.006563695990
0.013805985423
0.017979106529
0.018507585353
0.015130885284
0.008770630880
0.000402495819
-0.008181538887
-0.015728806668
-0.020743216195
-0.022648295309
-0.021044421325
-0.016337914377
-0.009210569882
-0.000716345057
0.008010413866
0.015891788038
0.022045275316
0.025871078568
0.027081188183
0.025710376911
0.021996352124
0.016474356140
0.009608610065
0.002147987215
-0.005505095340
-0.012698522246
-0.019216617323
-0.024694396703
-0.029074434052
-0.032314471074
-0.034382607820
-0.035478858619
-0.035489366084
-0.034712648839
-0.032998076285
-0.030652565223
-0.027596433825
-0.024118803005
-0.020318836932
-0.016376605730
-0.012535438168
-0.008800363183
-0.005360256947
-0.002054189611
0.000984191888
0.003992469892
0.006762007852
0.009394025748
0.011586449165
0.013450921924
0.014600769696
0.015405477655
0.015572773393
0.015418450258
0.014629168242
0.013337206475
0.011010431933
0.007767379060
0.003419139124
-0.001883991356
-0.008209865078
-0.015250736163
-0.023607640474
-0.032986907280
-0.043333171117
-0.054351031293
-0.065753878323
-0.076157471467
-0.086155700656
-0.096274266582
-0.105539324385
-0.108840742741
-0.105161278999
-0.106539783736
-0.124766087557
-0.108586222556
0.005634074711
0.033441893292
-0.348926635891
-0.473506351818
1.162791270198
2.145777301809
-4.277620058404
-9.272201409730
16.270331426418
39.434320858980
-60.611084612093
-159.337689568592
224.843050701613
617.522971006948
-817.374156650423
-2282.669115902221
2887.348076268502
8018.704103601602
-9820.998022405220
-26662.726282485179
31893.233042057283
83567.092512585121
-98118.137683685432
-245819.104745216027
283858.063691801508
675442.534110439825
-766641.931514647906
-1724251.422868007096
1918355.929892571410
4062936.262376493774
-4410170.603629953228
-8766009.129957851022
9222157.316766083241
17136574.175050906837
-17319366.287318121642
-29919094.798268161714
28702802.041269790381
45672984.053087286651
-40867135.452883526683
-58878091.437947124243
47684768.055317506194
59873511.975714355707
-40981883.630341939628
-39668143.748963594437
16713928.457418695092
0.000000000000
0.000000000000
4763703469.044631004333
-24769783453.110496520996
-11590472689.838981628418
36888599014.356399536133
13271298966.015748977661
-35435837233.892341613770
-11082946917.100542068481
26532776310.293804168701
7494616160.560861587524
-16530053050.479850769043
-4290455334.891431331635
8835947565.731616973877
2128354178.110895395279
-4114372858.870285987854
-927089607.933495521545
1676852348.321321964264
357277328.329372704029
-594371129.475484251976
-122346845.811695650220
178535612.551240324974
37398063.252954870462
-41923878.749561652541
-10335713.438883975148
5217079.655228586867
2694999.960201867856
1622048.286501461640
-738980.022670302773
-1601698.413279310567
246782.042942358414
808628.574795883382
-101487.683177944651
-323295.972770478751
44792.049674805268
112512.171661867833
-19021.955517784310
-35414.893085727163
7458.807208273277
10292.648985144870
-2676.118349957374
-2799.024729421926
878.516072651438
718.965578274231
-263.860198781410
-175.515280144576
72.211293768457
40.816484439425
-17.793226192972
-9.048346406570
3.793600421082
1.907209841408
-0.589288358117
-0.349748585283
0.000800253587
0.003580473230
-0.002330848273
0.004629380625
0.020968339179
0.038212774777
0.023266732806
-0.014218717188
-0.039964275890
-0.041703684604
-0.024650364793
0.000754602633
0.023521734604
0.033568656055
0.028392260296
0.011633564931
-0.008432809769
-0.024558983002
-0.031195129397
-0.027604923799
-0.015609317540
0.000064684071
0.015092374138
0.025316813162
0.028981436957
0.025486476778
0.016451077315
0.003962395281
-0.008976689331
-0.019886044085
-0.026623514167
-0.028177061985
-0.024386310147
-0.016160164355
-0.004964134613
0.007244283674
0.018562042203
0.027320755099
0.032306559073
0.033045789575
0.029469727301
0.022324660876
0.012409300125
0.001079576213
-0.010605101798
-0.021385374249
-0.030458459078
-0.037092820822
-0.040978319508
-0.041966495846
-0.040189257313
-0.035917159200
-0.029544634503
-0.021548082370
-0.012412667706
-0.002645773504
0.007310123502
0.017019350102
0.026159926787
0.034469646756
0.041790928386
0.048068034374
0.053333929906
0.057662261708
0.061219999960
0.064070802389
0.066428301605
0.068207522510
0.069663251899
0.070629535865
0.071398428810
0.071943445943
0.072540718688
0.073340825193
0.074420031512
0.075991995463
0.077808118650
0.080092616910
0.082539339793
0.085461045391
0.088699034991
0.092585317571
0.096799795901
0.101501411130
0.106000289696
0.110489133060
0.114343650542
0.117939422885
0.120581671607
0.122447662637
0.122295665995
0.119997385862
0.115019187818
0.107745176362
0.096683566452
0.082569272880
0.066674259134
0.049944788494
0.024381558011
-0.012823613488
-0.032034891865
-0.002887458223
-0.029938061474
-0.260802531952
-0.315634034250
0.538818336014
0.942002967606
-2.487800318000
-4.811882682465
8.946254663689
20.547610115444
-33.777487832001
-85.470302569896
126.312505496058
340.434487144495
-465.304772385932
-1294.263677734147
1675.256117146612
4684.986486605776
-5833.935973992484
-16079.747961757152
19480.209451549268
52121.239376695914
-61860.572129063570
-158893.126488806156
185400.716600364365
453527.033964532427
-520603.041438333050
-1205944.841019992949
1359517.835522156907
2969753.572093189228
-3275632.892067830544
-6724450.063168235123
7215747.803439306095
13872538.054220775142
-14370847.041553549469
-25757635.337025128305
25495491.943123899400
42303910.676725685596
-39438790.325871124864
-59835274.730518169701
51373409.266092315316
69514546.673247754574
-52640793.038598380983
-59602828.760491281748
35044292.582614570856
24288927.710685804486
0.000000000000
0.000000000000
13674600368.960483551025
8750929081.662246704102
-33248425992.961639404297
-12985203788.581640243530
38053341382.637985229492
12403336956.898588180542
-31785281314.070289611816
-9217053781.631349563599
21512268192.452526092529
5690390153.111459732056
-12325960100.430629730225
-3012861597.589830398560
6109972418.733325004578
1392363765.740897655487
-2645156158.042477130890
-567442872.381234884262
999180736.661461591721
205211054.173161268234
-324192925.349931120872
-66206852.684935636818
85998559.142472654581
19257791.729208298028
-15568740.889241844416
-5209609.851589131169
-357514.665451839915
1421158.425413550809
2017956.344641532516
-446663.117321599100
-1209632.418097937480
172333.611049722880
523819.035312259686
-74287.965209909569
-192031.511314062634
31763.245479887206
62872.616588490193
-12705.995039787571
-18870.481722720455
4672.608831545428
5274.566881919602
-1575.354609749661
-1387.993121578617
486.890654572408
346.518687323925
-137.565973176553
-82.441519913901
35.163944420247
18.658317635739
-7.921699626581
-3.939652377428
1.505065153099
0.753414125227
-0.231513895995
-0.168053115474
-0.007754450481
0.061536626251
0.072350640171
0.025197125993
-0.025456101587
-0.048028847108
-0.046632259686
-0.024170230355
0.011840040532
0.041677202656
0.049262803913
0.032956430967
0.002713659358
-0.027213991503
-0.044590640484
-0.043779570702
-0.026891538549
-0.001649265218
0.022408197425
0.037527502060
0.039901659308
0.030057015363
0.011926130283
-0.008963541295
-0.027089197890
-0.038291950594
-0.040466968600
-0.033743034389
-0.019987705421
-0.002418691763
0.015592551165
0.030569163523
0.040269064110
0.043025424243
0.038948901700
0.028606818141
0.014082612880
-0.002786493236
-0.019293845548
-0.033717871737
-0.044054851409
-0.049582979679
-0.049663910456
-0.044686314113
-0.035302569739
-0.022542564047
-0.007801271516
0.007853578420
0.022926660609
0.036709878517
0.048079374581
0.056813524745
0.062390711892
0.064946399551
0.064564981850
0.061530932846
0.056351929129
0.049282073648
0.040991782861
0.031606831075
0.021714965670
0.011399839789
0.000996494034
-0.009311534775
-0.019419094514
-0.028999965347
-0.038142364600
-0.046455209858
-0.054183147168
-0.061116546099
-0.067487324773
-0.073288572646
-0.078649926366
-0.083491877617
-0.087793229290
-0.091420176507
-0.094363948740
-0.096493951446
-0.098039611897
-0.098839580399
-0.098865063640
-0.097986529383
-0.095778624136
-0.092155448306
-0.086940130004
-0.080262215106
-0.071881306591
-0.061945036790
-0.050034949173
-0.035986280205
-0.020064045700
-0.003056130791
0.014719865856
0.032031656355
0.049495474886
0.067003353613