# vtk DataFile Version 2.0
TITLE = "Quad data"
ASCII
DATASET STRUCTURED_GRID
DIMENSIONS 201 201 1
POINTS 40401 FLOAT
-1.000000 -1.000000 0.000000
-1.000000 -0.990000 0.000000
-1.000000 -0.980000 0.000000
-1.000000 -0.970000 0.000000
-1.000000 -0.960000 0.000000
-1.000000 -0.950000 0.000000
-1.000000 -0.940000 0.000000
-1.000000 -0.930000 0.000000
-1.000000 -0.920000 0.000000
-1.000000 -0.910000 0.000000
-1.000000 -0.900000 0.000000
-1.000000 -0.890000 0.000000
-1.000000 -0.880000 0.000000
-1.000000 -0.870000 0.000000
-1.000000 -0.860000 0.000000
-1.000000 -0.850000 0.000000
-1.000000 -0.840000 0.000000
-1.000000 -0.830000 0.000000
-1.000000 -0.820000 0.000000
-1.000000 -0.810000 0.000000
-1.000000 -0.800000 0.000000
-1.000000 -0.790000 0.000000
-1.000000 -0.780000 0.000000
-1.000000 -0.770000 0.000000
-1.000000 -0.760000 0.000000
-1.000000 -0.750000 0.000000
-1.000000 -0.740000 0.000000
-1.000000 -0.730000 0.000000
-1.000000 -0.720000 0.000000
-1.000000 -0.710000 0.000000
-1.000000 -0.700000 0.000000
-1.000000 -0.690000 0.000000
-1.000000 -0.680000 0.000000
-1.000000 -0.670000 0.000000
-1.000000 -0.660000 0.000000
-1.000000 -0.650000 0.000000
-1.000000 -0.640000 0.000000
-1.000000 -0.630000 0.000000
-1.000000 -0.620000 0.000000
-1.000000 -0.610000 0.000000
-1.000000 -0.600000 0.000000
-1.000000 -0.590000 0.000000
-1.000000 -0.580000 0.000000
-1.000000 -0.570000 0.000000
-1.000000 -0.560000 0.000000
-1.000000 -0.550000 0.000000
-1.000000 -0.540000 0.000000
-1.000000 -0.530000 0.000000
-1.000000 -0.520000 0.000000
-1.000000 -0.510000 0.000000
-1.000000 -0.500000 0.000000
-1.000000 -0.490000 0.000000
-1.000000 -0.480000 0.000000
-1.000000 -0.470000 0.000000
-1.000000 -0.460000 0.000000
-1.000000 -0.450000 0.000000
-1.000000 -0.440000 0.000000
-1.000000 -0.430000 0.000000
-1.000000 -0.420000 0.000000
-1.000000 -0.410000 0.000000
-1.000000 -0.400000 0.000000
-1.000000 -0.390000 0.000000
-1.000000 -0.380000 0.000000
-1.000000 -0.370000 0.000000
-1.000000 -0.360000 0.000000
-1.000000 -0.350000 0.000000
-1.000000 -0.340000 0.000000
-1.000000 -0.330000 0.000000
-1.000000 -0.320000 0.000000
-1.000000 -0.310000 0.000000
-1.000000 -0.300000 0.000000
-1.000000 -0.290000 0.000000
-1.000000 -0.280000 0.000000
-1.000000 -0.270000 0.000000
-1.000000 -0.260000 0.000000
-1.000000 -0.250000 0.000000
-1.000000 -0.240000 0.000000
-1.000000 -0.230000 0.000000
-1.000000 -0.220000 0.000000
-1.000000 -0.210000 0.000000
-1.000000 -0.200000 0.000000
-1.000000 -0.190000 0.000000
-1.000000 -0.180000 0.000000
-1.000000 -0.170000 0.000000
-1.000000 -0.160000 0.000000
-1.000000 -0.150000 0.000000
-1.000000 -0.140000 0.000000
-1.000000 -0.130000 0.000000
-1.000000 -0.120000 0.000000
-1.000000 -0.110000 0.000000
-1.000000 -0.100000 0.000000
-1.000000 -0.090000 0.000000
-1.000000 -0.080000 0.000000
-1.000000 -0.070000 0.000000
-1.000000 -0.060000 0.000000
-1.000000 -0.050000 0.000000
-1.000000 -0.040000 0.000000
-1.000000 -0.030000 0.000000
-1.000000 -0.020000 0.000000
-1.000000 -0.010000 0.000000
-1.000000 0.000000 0.000000
-1.000000 0.010000 0.000000
-1.000000 0.020000 0.000000
-1.000000 0.030000 0.000000
-1.000000 0.040000 0.000000
-1.000000 0.050000 0.000000
-1.000000 0.060000 0.000000
-1.000000 0.070000 0.000000
-1.000000 0.080000 0.000000
-1.000000 0.090000 0.000000
-1.000000 0.100000 0.000000
-1.000000 0.110000 0.000000
-1.000000 0.120000 0.000000
-1.000000 0.130000 0.000000
-1.000000 0.140000 0.000000
-1.000000 0.150000 0.000000
-1.000000 0.160000 0.000000
-1.000000 0.170000 0.000000
-1.000000 0.180000 0.000000
-1.000000 0.190000 0.000000
-1.000000 0.200000 0.000000
-1.000000 0.210000 0.000000
-1.000000 0.220000 0.000000
-1.000000 0.230000 0.000000
-1.000000 0.240000 0.000000
-1.000000 0.250000 0.000000
-1.000000 0.260000 0.000000
-1.000000 0.270000 0.000000
-1.000000 0.280000 0.000000
-1.000000 0.290000 0.000000
-1.000000 0.300000 0.000000
-1.000000 0.310000 0.000000
-1.000000 0.320000 0.000000
-1.000000 0.330000 0.000000
-1.000000 0.340000 0.000000
-1.000000 0.350000 0.000000
-1.000000 0.360000 0.000000
-1.000000 0.370000 0.000000
-1.000000 0.380000 0.000000
-1.000000 0.390000 0.000000
-1.000000 0.400000 0.000000
-1.000000 0.410000 0.000000
-1.000000 0.420000 0.000000
-1.000000 0.430000 0.000000
-1.000000 0.440000 0.000000
-1.000000 0.450000 0.000000
-1.000000 0.460000 0.000000
-1.000000 0.470000 0.000000
-1.000000 0.480000 0.000000
-1.000000 0.490000 0.000000
-1.000000 0.500000 0.000000
-1.000000 0.510000 0.000000
-1.000000 0.520000 0.000000
-1.000000 0.530000 0.000000
-1.000000 0.540000 0.000000
-1.000000 0.550000 0.000000
-1.000000 0.560000 0.000000
-1.000000 0.570000 0.000000
-1.000000 0.580000 0.000000
-1.000000 0.590000 0.000000
-1.000000 0.600000 0.000000
-1.000000 0.610000 0.000000
-1.000000 0.620000 0.000000
-1.000000 0.630000 0.000000
-1.000000 0.640000 0.000000
-1.000000 0.650000 0.000000
-1.000000 0.660000 0.000000
-1.000000 0.670000 0.000000
-1.000000 0.680000 0.000000
-1.000000 0.690000 0.000000
-1.000000 0.700000 0.000000
-1.000000 0.710000 0.000000
-1.000000 0.720000 0.000000
-1.000000 0.730000 0.000000
-1.000000 0.740000 0.000000
-1.000000 0.750000 0.000000
-1.000000 0.760000 0.000000
-1.000000 0.770000 0.000000
-1.000000 0.780000 0.000000
-1.000000 0.790000 0.000000
-1.000000 0.800000 0.000000
-1.000000 0.810000 0.000000
-1.000000 0.820000 0.000000
-1.000000 0.830000 0.000000
-1.000000 0.840000 0.000000
-1.000000 0.850000 0.000000
-1.000000 0.860000 0.000000
-1.000000 0.870000 0.000000
-1.000000 0.880000 0.000000
-1.000000 0.890000 0.000000
-1.000000 0.900000 0.000000
-1.000000 0.910000 0.000000
-1.000000 0.920000 0.000000
-1.000000 0.930000 0.000000
-1.000000 0.940000 0.000000
-1.000000 0.950000 0.000000
-1.000000 0.960000 0.000000
-1.000000 0.970000 0.000000
-1.000000 0.980000 0.000000
-1.000000 0.990000 0.000000
-1.000000 1.000000 0.000000
-0.990000 -1.000000 0.000000
-0.990000 -0.990000 0.000000
-0.990000 -0.980000 0.000000
-0.990000 -0.970000 0.000000
-0.990000 -0.960000 0.000000
-0.990000 -0.950000 0.000000
-0.990000 -0.940000 0.000000
-0.990000 -0.930000 0.000000
-0.990000 -0.920000 0.000000
-0.990000 -0.910000 0.000000
-0.990000 -0.900000 0.000000
-0.990000 -0.890000 0.000000
-0.990000 -0.880000 0.000000
-0.990000 -0.870000 0.000000
-0.990000 -0.860000 0.000000
-0.990000 -0.850000 0.000000
-0.990000 -0.840000 0.000000
-0.990000 -0.830000 0.000000
-0.990000 -0.820000 0.000000
-0.990000 -0.810000 0.000000
-0.990000 -0.800000 0.000000
-0.990000 -0.790000 0.000000
-0.990000 -0.780000 0.000000
-0.990000 -0.770000 0.000000
-0.990000 -0.760000 0.000000
-0.990000 -0.750000 0.000000
-0.990000 -0.740000 0.000000
-0.990000 -0.730000 0.000000
-0.990000 -0.720000 0.000000
-0.990000 -0.710000 0.000000
-0.990000 -0.700000 0.000000
-0.990000 -0.690000 0.000000
-0.990000 -0.680000 0.000000
-0.990000 -0.670000 0.000000
-0.990000 -0.660000 0.000000
-0.990000 -0.650000 0.000000
-0.990000 -0.640000 0.000000
-0.990000 -0.630000 0.000000
-0.990000 -0.620000 0.000000
-0.990000 -0.610000 0.000000
-0.990000 -0.600000 0.000000
-0.990000 -0.590000 0.000000
-0.990000 -0.580000 0.000000
-0.990000 -0.570000 0.000000
-0.990000 -0.560000 0.000000
-0.990000 -0.550000 0.000000
-0.990000 -0.540000 0.000000
-0.990000 -0.530000 0.000000
-0.990000 -0.520000 0.000000
-0.990000 -0.510000 0.000000
-0.990000 -0.500000 0.000000
-0.990000 -0.490000 0.000000
-0.990000 -0.480000 0.000000
-0.990000 -0.470000 0.000000
-0.990000 -0.460000 0.000000
-0.990000 -0.450000 0.000000
-0.990000 -0.440000 0.000000
-0.990000 -0.430000 0.000000
-0.990000 -0.420000 0.000000
-0.990000 -0.410000 0.000000
-0.990000 -0.400000 0.000000
-0.990000 -0.390000 0.000000
-0.990000 -0.380000 0.000000
-0.990000 -0.370000 0.000000
-0.990000 -0.360000 0.000000
-0.990000 -0.350000 0.000000
-0.990000 -0.340000 0.000000
-0.990000 -0.330000 0.000000
-0.990000 -0.320000 0.000000
-0.990000 -0.310000 0.000000
-0.990000 -0.300000 0.000000
-0.990000 -0.290000 0.000000
-0.990000 -0.280000 0.000000
-0.990000 -0.270000 0.000000
-0.990000 -0.260000 0.000000
-0.990000 -0.250000 0.000000
-0.990000 -0.240000 0.000000
-0.990000 -0.230000 0.000000
-0.990000 -0.220000 0.000000
-0.990000 -0.210000 0.000000
-0.990000 -0.200000 0.000000
-0.990000 -0.190000 0.000000
-0.990000 -0.180000 0.000000
-0.990000 -0.170000 0.000000
-0.990000 -0.160000 0.000000
-0.990000 -0.150000 0.000000
-0.990000 -0.140000 0.000000
-0.990000 -0.130000 0.000000
-0.990000 -0.120000 0.000000
-0.990000 -0.110000 0.000000
-0.990000 -0.100000 0.000000
-0.990000 -0.090000 0.000000
-0.990000 -0.080000 0.000000
-0.990000 -0.070000 0.000000
-0.990000 -0.060000 0.000000
-0.990000 -0.050000 0.000000
-0.990000 -0.040000 0.000000
-0.990000 -0.030000 0.000000
-0.990000 -0.020000 0.000000
-0.990000 -0.010000 0.000000
-0.990000 0.000000 0.000000
-0.990000 0.010000 0.000000
-0.990000 0.020000 0.000000
-0.990000 0.030000 0.000000
-0.990000 0.040000 0.000000
-0.990000 0.050000 0.000000
-0.990000 0.060000 0.000000
-0.990000 0.070000 0.000000
-0.990000 0.080000 0.000000
-0.990000 0.090000 0.000000
-0.990000 0.100000 0.000000
-0.990000 0.110000 0.000000
-0.990000 0.120000 0.000000
-0.990000 0.130000 0.000000
-0.990000 0.140000 0.000000
-0.990000 0.150000 0.000000
-0.990000 0.160000 0.000000
-0.990000 0.170000 0.000000
-0.990000 0.180000 0.000000
-0.990000 0.190000 0.000000
-0.990000 0.200000 0.000000
-0.990000 0.210000 0.000000
-0.990000 0.220000 0.000000
-0.990000 0.230000 0.000000
-0.990000 0.240000 0.000000
-0.990000 0.250000 0.000000
-0.990000 0.260000 0.000000
-0.990000 0.270000 0.000000
-0.990000 0.280000 0.000000
-0.990000 0.290000 0.000000
-0.990000 0.300000 0.000000
-0.990000 0.310000 0.000000
-0.990000 0.320000 0.000000
-0.990000 0.330000 0.000000
-0.990000 0.340000 0.000000
-0.990000 0.350000 0.000000
-0.990000 0.360000 0.000000
-0.990000 0.370000 0.000000
-0.990000 0.380000 0.000000
-0.990000 0.390000 0.000000
-0.990000 0.400000 0.000000
-0.990000 0.410000 0.000000
-0.990000 0.420000 0.000000
-0.990000 0.430000 0.000000
[...]
POINT_DATA 40401
SCALARS phi FLOAT 1
LOOKUP_TABLE default
0.000000000000
0.000000000000
0.000000000000
0.000000000000
0.000000000000
0.000000000000
0.000000000000
0.000000000000
0.000000000000
0.000000000000
0.000000000000
0.000000000000
0.000000000000
0.000000000000
0.000000000000
0.000000000000
0.000000000000
0.000000000000
0.000000000000
0.000000000000
0.000000000000
0.000000000000
0.000000000000
0.000000000000
0.000000000000
0.000000000000
0.000000000000
0.000000000000
0.000000000000
0.000000000000
0.000000000000
0.000000000000
0.000000000000
0.000000000000
0.000000000000
0.000000000000
0.000000000000
0.000000000000
0.000000000000
0.000000000000
0.000000000000
0.000000000000
0.000000000000
0.000000000000
0.000000000000
0.000000000000
0.000000000000
0.000000000000
0.000000000000
0.000000000000
0.000000000000
0.000000000000
0.000000000000
0.000000000000
0.000000000000
0.000000000000
0.000000000000
0.000000000000
0.000000000000
0.000000000000
0.000000000000
0.000000000000
0.000000000000
0.000000000000
0.000000000000
0.000000000000
0.000000000000
0.000000000000
0.000000000000
0.000000000000
0.000000000000
0.000000000000
0.000000000000
0.000000000000
0.000000000000
0.000000000000
0.000000000000
0.000000000000
0.000000000000
0.000000000000
0.000000000000
0.000000000000
0.000000000000
0.000000000000
0.000000000000
0.000000000000
0.000000000000
0.000000000000
0.000000000000
0.000000000000
0.000000000000
0.000000000000
0.000000000000
0.000000000000
0.000000000000
0.000000000000
0.000000000000
0.000000000000
0.000000000000
0.000000000000
0.000000000000
0.000000000000
0.000000000000
0.000000000000
0.000000000000
0.000000000000
0.000000000000
0.000000000000
0.000000000000
0.000000000000
0.000000000000
0.000000000000
0.000000000000
0.000000000000
0.000000000000
0.000000000000
0.000000000000
0.000000000000
0.000000000000
0.000000000000
0.000000000000
0.000000000000
0.000000000000
0.000000000000
0.000000000000
0.000000000000
0.000000000000
0.000000000000
0.000000000000
0.000000000000
0.000000000000
0.000000000000
0.000000000000
0.000000000000
0.000000000000
0.000000000000
0.000000000000
0.000000000000
0.000000000000
0.000000000000
0.000000000000
0.000000000000
0.000000000000
0.000000000000
0.000000000000
0.000000000000
0.000000000000
0.000000000000
0.000000000000
0.000000000000
0.000000000000
0.000000000000
0.000000000000
0.000000000000
0.000000000000
0.000000000000
0.000000000000
0.000000000000
0.000000000000
0.000000000000
0.000000000000
0.000000000000
0.000000000000
0.000000000000
0.000000000000
0.000000000000
0.000000000000
0.000000000000
0.000000000000
0.000000000000
0.000000000000
0.000000000000
0.000000000000
0.000000000000
0.000000000000
0.000000000000
0.000000000000
0.000000000000
0.000000000000
0.000000000000
0.000000000000
0.000000000000
0.000000000000
0.000000000000
0.000000000000
0.000000000000
0.000000000000
0.000000000000
0.000000000000
0.000000000000
0.000000000000
0.000000000000
0.000000000000
0.000000000000
0.000000000000
0.000000000000
0.000000000000
0.000000000000
0.000000000000
0.000000000000
0.000000000000
0.000000000000
-0.000223370644
-0.000212021383
0.000579061313
0.000503009566
-0.000643024553
-0.000749530589
0.000354638299
0.000667611026
-0.000013330599
-0.000191511784
0.000117612734
-0.000153293957
-0.000585106630
-0.000092081717
0.000779028551
0.000698157716
-0.000141409091
-0.000453441600
-0.000003742862
0.000271827548
0.000020085271
-0.000024211710
0.000605093136
0.001283202714
0.001217159432
0.000559623002
0.000120388876
0.000263522339
0.000553857913
0.000449200984
-0.000005343939
-0.000313891298
-0.000173036933
0.000206898272
0.000386529954
0.000183361420
-0.000185855488
-0.000365299912
-0.000212559412
0.000102013451
0.000287268508
0.000190343659
-0.000086674252
-0.000307740349
-0.000293862423
-0.000067814044
0.000194860116
0.000296983935
0.000175888941
-0.000075377114
-0.000275993300
-0.000294312285
-0.000123522493
0.000121211948
0.000287262155
0.000280112387
0.000111013736
-0.000116057486
-0.000276733420
-0.000287704594
-0.000153780442
0.000054129061
0.000230042474
0.000298539030
0.000232189377
0.000071372166
-0.000115912849
-0.000249791225
-0.000287206520
-0.000216640865
-0.000074765442
0.000089976465
0.000218298489
0.000277152802
0.000250128442
0.000154798660
0.000018893217
-0.000116462038
-0.000220040201
-0.000267930574
-0.000254912583
-0.000187622274
-0.000084484921
0.000031783903
0.000138821997
0.000218409398
0.000259851198
0.000259581891
0.000221108543
0.000153239511
0.000066904347
-0.000024776904
-0.000111738221
-0.000183561754
-0.000235727893
-0.000263539520
-0.000268262372
-0.000250453063
-0.000214720797
-0.000164780996
-0.000105678002
-0.000042127114
0.000022338236
0.000083511562
0.000139947970
0.000188747887
0.000230079833
0.000262619102
0.000287242370
0.000304076771
0.000313969225
0.000318034208
0.000316871301
0.000311853951
0.000303628205
0.000293071796
0.000281324769
0.000268374334
0.000255949175
0.000243422509
0.000232566340
0.000223001627
0.000215626073
0.000211143337
0.000209062279
0.000211185584
0.000216186060
0.000225926319
0.000239602625
0.000257847731
0.000281265346
0.000309030148
0.000342429669
0.000380381628
0.000423052081
0.000470321295
0.000520341817
0.000573404270
0.000626705741
0.000679052433
0.000728001995
0.000770295926
0.000803227062
0.000823287567
0.000826162751
0.000809705682
0.000769369886
0.000703875386
0.000612073690
0.000493754069
0.000352678634
0.000192634481
0.000021538821
-0.000151716972
-0.000314468263
-0.000456991431
-0.000562859714
-0.000626856720
-0.000635914975
-0.000593555165
-0.000496732144
-0.000362577981
-0.000198401601
-0.000032072446
0.000120586003
0.000237021517
0.000300543739
0.000308526807
0.000256741114
0.000169544143
0.000047920816
-0.000048177482
-0.000153642812
-0.000163424639
-0.000196644867
-0.000100544919
-0.000076160680
0.000041687581
0.000066802390
0.000107823251
0.000090215968
0.000053226321
0.000005482037
-0.000029000650
-0.000059544685
-0.000043549655
-0.000031058095
-0.000002869453
0.000021206357
0.000025618756
0.000021582583
0.000009858899
-0.000006505156
-0.000012146238
-0.000009111217
-0.000006409450
-0.000002354452
0.000008635773
0.000005009410
0.000000000000
0.000000000000
-0.000156848840
0.000627467382
0.000538755371
-0.000980322881
-0.000962120866
0.000839436541
0.001111048609
-0.000365164772
-0.000689042792
0.000186342182
0.000045023083
-0.000645869367
0.000051654589
0.001232079796
0.000686544976
-0.000875649708
-0.001018975942
0.000238094661
0.000730122596
-0.000078531382
-0.000474418319
0.000395150662
0.001139941610
0.000439939931
-0.000911331791
-0.001230299292
-0.000306538801
0.000493283768
0.000175747591
-0.000701027988
-0.000941965997
-0.000252352019
0.000537439110
0.000553694503
-0.000155143941
-0.000788755250
-0.000708036591
-0.000031645446
0.000570765833
0.000576559192
0.000038664138
-0.000523511428
-0.000629183911
-0.000212151191
0.000369816020
0.000658977703
0.000456057214
-0.000068482522
-0.000518191679
-0.000587002872
-0.000237457481
0.000273896586
0.000616395887
0.000573522969
0.000193389051
-0.000291320678
-0.000591549451
-0.000553592263
-0.000209959796
0.000240015250
0.000564810837
0.000608811887
0.000367374381
-0.000034012007
-0.000408351817
-0.000597491538
-0.000535367266
-0.000261647905
0.000104917061
0.000424661420
0.000586931362
0.000548219911
0.000333800992
0.000023419355
-0.000284552160
-0.000501531404
-0.000575733511
-0.000497328870
-0.000298063468
-0.000033413351
0.000230658011
0.000438072257
0.000549491866
0.000551359339
0.000451050020
0.000274732683
0.000057621170
-0.000162907013
-0.000352952049
-0.000489416822
-0.000556728432
-0.000554715687
-0.000486435159
-0.000368795932
-0.000214269503
-0.000045527617
0.000125336766
0.000279281756
0.000409962475
0.000506543970
0.000568853072
0.000594592926
0.000587220045
0.000550921469
0.000489675177
0.000411326669
0.000318345820
0.000219510535
0.000115410213
0.000013464199
-0.000086664693
-0.000180557139
-0.000268096393
-0.000348525783
-0.000420492777
-0.000486260045
-0.000543684105
-0.000596172039
-0.000642243775
-0.000684166660
-0.000722486555
-0.000757032137
-0.000790314602
-0.000820458699
-0.000850051060
-0.000877831728
-0.000904023694
-0.000929769797
-0.000952190027
-0.000973979136
-0.000991137102
-0.001004811127
-0.001012691646
-0.001012302646
-0.001003288196
-0.000981265627
-0.000944901610
-0.000891705983
-0.000817230161
-0.000722005364
-0.000600999774
-0.000455316274
-0.000283945622
-0.000088003919
0.000128955551
0.000361130612
0.000603356648
0.000841509735
0.001068581658
0.001265973786
0.001422635087
0.001521351341
0.001552193851
0.001501438708
0.001370913862
0.001156116281
0.000874231950
0.000539985566
0.000182631458
-0.000165974826
-0.000470764418
-0.000697433244
-0.000825524842
-0.000829817694
-0.000730915640
-0.000523681721
-0.000269506373
0.000014148021
0.000248526819
0.000427894545
0.000478238697
0.000454345646
0.000299427265
0.000139440202
-0.000072906856
-0.000200913298
-0.000277616405
-0.000267795198
-0.000168750246
-0.000061977977
0.000064615114
0.000136583699
0.000148502174
0.000118930621
0.000043466385
-0.000028893333
-0.000064119199
-0.000081627402
-0.000051932721
-0.000011702891
0.000020407893
0.000039100196
0.000033495170
0.000011744860
-0.000006201970
-0.000010865732
-0.000019229834
-0.000011999729
0.000009707347
0.000000000000
0.000000000000
0.000257385167
0.000301005012
-0.000679694750
-0.000624697290
0.000830678240
0.000839636526
-0.000691891520
-0.000742236034
0.000553163453
0.000411051297
-0.000679098339
-0.000164077696
0.001090392498
0.000453783489
-0.001142681279
-0.000801793969
0.000956945012
0.001111327327
-0.000542631260
-0.001156362386
0.000283727140
0.001413569148
0.000472684147
-0.000980369005
-0.000639795907
0.001073370281
0.001767501593
0.000520603943
-0.001017513907
-0.000978813530
0.000386812889
0.001278856747
0.000659798463
-0.000664157485
-0.001171110801
-0.000365830884
0.000848667090
0.001248209688
0.000521148132
-0.000570710730
-0.001026930116
-0.000505426502
0.000466602443
0.001058276609
0.000811160820
-0.000028252736
-0.000804038256
-0.000949644136
-0.000403784517
0.000419898944
0.000945839797
0.000838934465
0.000195284475
-0.000564662252
-0.000970372321
-0.000804026038
-0.000178269250
0.000529976009
0.000943507553
0.000849630955
0.000329645210
-0.000350218298
-0.000849219679
-0.000956813909
-0.000636885865
-0.000057955854
0.000534673623
0.000897501447
0.000912136679
0.000588321259
0.000067489468
-0.000465876167
-0.000831709072
-0.000931194639
-0.000747308152
-0.000357013433
0.000123445959
0.000555882653
0.000841161755
0.000914771091
0.000782400063
0.000480083792
0.000091448875
-0.000309304263
-0.000636996329
-0.000848248018
-0.000907217350
-0.000825192823
-0.000617480984
-0.000331058343
-0.000004655336
0.000312154019
0.000585828296
0.000787366041
0.000902248412
0.000927768632
0.000867222103
0.000737264636
0.000550204259
0.000330830152
0.000091553983
-0.000144177774
-0.000368872873
-0.000565909702
-0.000733348139
-0.000863280356
-0.000957078918
-0.001015112297
-0.001039061888
-0.001035769575
-0.001005241740
-0.000958027739
-0.000892449259
-0.000819301483
-0.000737026752
-0.000653223202
-0.000568800975
-0.000486056861
-0.000409409373
-0.000336385086
-0.000273388709
-0.000216428853
-0.000170406203
-0.000133878955
-0.000107398351
-0.000093866192
-0.000090080298
-0.000101059392
-0.000123901098
-0.000161385040
-0.000214567291
-0.000282075199
-0.000367774050
-0.000469118726
-0.000587341074
-0.000722959928
-0.000871031331
-0.001034223051
-0.001204222991
-0.001379637221
-0.001553419074
-0.001716949185
-0.001862940457
-0.001980600070
-0.002057065552
-0.002085244962
-0.002049055838
-0.001944110840
-0.001762091256
-0.001501160343
-0.001166697791
-0.000768554446
-0.000323743901
0.000140501194
0.000593832391
0.001002688070
0.001324280179
0.001534453114
0.001598049887
0.001512986342
0.001273272757
0.000917762261
0.000468563498
0.000007878584
-0.000425791780
-0.000749030813
-0.000930556459
-0.000934544539
-0.000779993886
-0.000489991865
-0.000149279999
0.000198070344
0.000432658502
0.000572488010
0.000518002535
0.000380007701
0.000134437314
-0.000085859698
-0.000263150843
-0.000319289992
-0.000279112489
-0.000150457128
-0.000005605499
0.000118343969
0.000171754114
0.000150763990
0.000078578369
-0.000002640957
-0.000069201617
-0.000086302686
-0.000065256929
-0.000019166691
0.000019829318
0.000042246379
0.000031794277
0.000013943348
0.000002218725
-0.000026336054
-0.000013944969
0.000000000000
0.000000000000
0.000061261970
-0.000093037942
-0.000143567258
0.000213353454
0.000138768063
-0.000414179976
-0.000103696765
0.000723395310
0.000229383806
-0.000918632820
-0.000433463768
0.000927374590
0.000588003579
-0.000771500873
-0.000436869204
0.001016603959
0.000637442716
-0.001329337493
-0.001573334251
0.000568596502
0.001843858597
0.000364898383
-0.001454124460
-0.000844707264
0.001079665589
0.001208398452
-0.000859308012
-0.002330254962
-0.001213831318
0.001075382220
0.001753120430
0.000210226828
-0.001506061203
-0.001361190523
0.000366518325
0.001678983469
0.001203100718
-0.000477968951
-0.001640250961
-0.001239238064
0.000234429390
0.001383871629
0.001254316731
0.000053341669
-0.001169371314
-0.001456625215
-0.000660715969
0.000567587172
0.001320028974
0.001114949804
0.000138784727
-0.000916253241
-0.001381085071
-0.000986230909
-0.000015878644
0.000943216000
0.001340919418
0.000986584257
0.000101179999
-0.000828592524
-0.001330480302
-0.001178749310
-0.000472793421
0.000434249191
0.001135153926
0.001334744984
0.000982729949
0.000241343745
-0.000575562278
-0.001170362565
-0.001334928117
-0.001047759300
-0.000420174631
0.000319113830
0.000949985218
0.001286597805
0.001264589783
0.000904109622
0.000327908823
-0.000317667244
-0.000871964278
-0.001224903927
-0.001312361238
-0.001138999445
-0.000754594367
-0.000244694838
0.000294434399
0.000774158835
0.001124426926
0.001306377430
0.001306331722
0.001141351753
0.000841882203
0.000456542782
0.000029759202
-0.000387643373
-0.000762502100
-0.001060293462
-0.001269663155
-0.001377241052
-0.001390847803
-0.001314214237
-0.001165014242
-0.000957080252
-0.000708245467
-0.000436193710
-0.000152720386
0.000125141771
0.000393110596
0.000638040359
0.000860726503
0.001054362731
0.001220603658
0.001360294378
0.001472595986
0.001565158426
0.001634251517
0.001690720167
0.001730801011
0.001763213057
0.001788164503
0.001808147428
0.001828951037
0.001847069758
0.001870815149
0.001895560117
0.001926084839
0.001962130126
0.002001149443
0.002047679336
0.002094447232
0.002144873054
0.002193594816
0.002236809785
0.002273846464
0.002295057644
0.002299225853
0.002278615594
0.002225180680
0.002136959033
0.002002247946
0.001819925743
0.001584991976
0.001293833258
0.000951770894
0.000561385772
0.000132602309
-0.000315303837
-0.000768412421
-0.001195081501
-0.001571105983
-0.001864335247
-0.002047540397
-0.002092306585
-0.001991245293
-0.001728578154
-0.001328838860
-0.000809950375
-0.000225774550
0.000372309200
0.000905567873
0.001323290828
0.001551805711
0.001572259571
0.001373521283
0.000986710966
0.000480972326
-0.000060363638
-0.000538044396
-0.000860465941
-0.000990620399
-0.000873002604
-0.000618168827
-0.000207359168
0.000154425941
0.000458792365
0.000580171303
0.000528868694
0.000340714396
0.000074332229
-0.000162085235
-0.000297978338
-0.000325152570
-0.000217794575
-0.000067669892
0.000076716820
0.000164571523
0.000158568255
0.000100188448
0.000011907163
-0.000063532256
-0.000082645379
-0.000063748116
-0.000023824963
0.000025345627
0.000031063123
0.000035567635
0.000017516464
-0.000021520173
0.000000000000
0.000000000000
0.000183370487
0.000149838425
-0.000432043805
-0.000409536134
0.000321500753
0.000646389701
0.000235191179
-0.000464683465
-0.000791341905
-0.000126437889
0.000877266815
0.000675834621
-0.000426239552
-0.000490117068
0.000396024062
0.000110124896
-0.001259774151
-0.001095074034
0.000945251196
0.001742368596
-0.000191230479
-0.001984978308
-0.000875680569
0.001411519608
0.001371426262
-0.000893837990
-0.001898283539
0.000021632104
0.002345112276
0.001929458166
-0.000772358165
-0.002457396822
-0.001222149364
0.001291682804
0.002115266201
0.000434291056
-0.001773065448
-0.002132110840
-0.000368036496
0.001678332090
0.002073606149
0.000583548855
-0.001330489484
-0.002014520519
-0.000998437766
0.000771610642
0.001883717779
0.001560409657
0.000144104948
-0.001299182254
-0.001795433736
-0.001077763629
0.000315709144
0.001492351293
0.001749195778
0.000993841714
-0.000307332685
-0.001403307369
-0.001730326609
-0.001143335338
0.000011546878
0.001156159322
0.001740840256
0.001531350306
0.000647432959
-0.000494635431
-0.001418476946
-0.001759282742
-0.001421498004
-0.000558244471
0.000488547092
0.001355737380
0.001760366353
0.001606151078
0.000965550749
0.000060036002
-0.000847671843
-0.001509081034
-0.001775797027
-0.001603149906
-0.001064172103
-0.000299173968
0.000510940564
0.001203479398
0.001649515258
0.001790482746
0.001617296482
0.001189427905
0.000582059005
-0.000090527954
-0.000743558242
-0.001278834759
-0.001655007160
-0.001826348942
-0.001805496115
-0.001597899766
-0.001250100088
-0.000797561968
-0.000291986991
0.000223671283
0.000713841461
0.001142422595
0.001498062088
0.001756895037
0.001928534552
0.002001335241
0.001996340543
0.001912393425
0.001771330077
0.001580713914
0.001355386720
0.001109451909
0.000848086950
0.000588234283
0.000328088246
0.000082090402
-0.000152591103
-0.000369110212
-0.000566008252
-0.000745670538
-0.000901537978
-0.001041320274
-0.001157991486
-0.001256875341
-0.001336831535
-0.001394961042
-0.001437767347
-0.001455611086
-0.001456777567
-0.001432941674
-0.001385624338
-0.001314297854
-0.001212043256
-0.001083298979
-0.000921136264
-0.000725963079
-0.000500078097
-0.000237473544
0.000051762609
0.000370181345
0.000708483910
0.001056256129
0.001404996031
0.001736408238
0.002032095423
0.002277280965
0.002442010101
0.002515255922
0.002472197221
0.002303067582
0.002002292141
0.001576641349
0.001038478667
0.000428775449
-0.000220146503
-0.000843859614
-0.001386801523
-0.001787000455
-0.001995416835
-0.001971799269
-0.001720249779
-0.001253093225
-0.000634467004
0.000047271499
0.000699903601
0.001203094715
0.001490326465
0.001494691079
0.001237360651
0.000770221978
0.000182146386
-0.000354400558
-0.000783133797
-0.000947956094
-0.000877698899
-0.000587551019
-0.000176980573
0.000209154903
0.000487786063
0.000563888915
0.000453204578
0.000217783129
-0.000041855232
-0.000251436812
-0.000302786651
-0.000255506858
-0.000106457091
0.000048454467
0.000134206206
0.000160957424
0.000099137754
0.000009388148
-0.000046393260
-0.000081514912
-0.000056773663
-0.000010673919
0.000010415853
0.000047594206
0.000016892915
0.000000000000
0.000000000000
0.000163950905
-0.000542355920
-0.000534862876
0.000777039421
0.000894715648
-0.000490961603
-0.000904554739
-0.000037690089
0.000463816935
0.000370604776
0.000202286914
-0.000170941711
-0.000444973787
-0.000124929170
0.000050806587
-0.000517103253
-0.000666682633
0.000312270298
0.000740214271
-0.000586684779
-0.001674741360
-0.000365463687
0.001708772342
0.001352711801
-0.001066634324
-0.001953734846
0.000068339329
0.002034671318
0.000970979709
-0.001805585211
-0.002500270619
0.000003709757
0.002736149104
0.002465032119
-0.000391495512
-0.002492194359
-0.001560279881
0.001234782911
0.002835988646
0.001646372061
-0.001057380268
-0.002654843908
-0.001778116965
0.000628263976
0.002415254856
0.002163037175
0.000230342382
-0.001789544307
-0.002400183900
-0.001287164867
0.000659434495
0.002079272741
0.002103273051
0.000809851994
-0.000935744652
-0.002086698093
-0.002031518577
-0.000861621325
0.000734843120
0.001924424320
0.002120655264
0.001288291659
-0.000149890352
-0.001496997570
-0.002179309419
-0.001918222670
-0.000878764730
0.000507200229
0.001675214240
0.002217736491
0.001955078804
0.001030913624
-0.000229707992
-0.001394773290
-0.002125859947
-0.002218104743
-0.001694230052
-0.000715174206
0.000424442261
0.001451514679
0.002112332665
0.002300608561
0.001985512694
0.001283847375
0.000337604256
-0.000644391527
-0.001503767160