# vtk DataFile Version 2.0
TITLE = "Quad data"
ASCII
DATASET STRUCTURED_GRID
DIMENSIONS 201 201 1
POINTS 40401 FLOAT
-1.000000 -1.000000 0.000000
-1.000000 -0.990000 0.000000
-1.000000 -0.980000 0.000000
-1.000000 -0.970000 0.000000
-1.000000 -0.960000 0.000000
-1.000000 -0.950000 0.000000
-1.000000 -0.940000 0.000000
-1.000000 -0.930000 0.000000
-1.000000 -0.920000 0.000000
-1.000000 -0.910000 0.000000
-1.000000 -0.900000 0.000000
-1.000000 -0.890000 0.000000
-1.000000 -0.880000 0.000000
-1.000000 -0.870000 0.000000
-1.000000 -0.860000 0.000000
-1.000000 -0.850000 0.000000
-1.000000 -0.840000 0.000000
-1.000000 -0.830000 0.000000
-1.000000 -0.820000 0.000000
-1.000000 -0.810000 0.000000
-1.000000 -0.800000 0.000000
-1.000000 -0.790000 0.000000
-1.000000 -0.780000 0.000000
-1.000000 -0.770000 0.000000
-1.000000 -0.760000 0.000000
-1.000000 -0.750000 0.000000
-1.000000 -0.740000 0.000000
-1.000000 -0.730000 0.000000
-1.000000 -0.720000 0.000000
-1.000000 -0.710000 0.000000
-1.000000 -0.700000 0.000000
-1.000000 -0.690000 0.000000
-1.000000 -0.680000 0.000000
-1.000000 -0.670000 0.000000
-1.000000 -0.660000 0.000000
-1.000000 -0.650000 0.000000
-1.000000 -0.640000 0.000000
-1.000000 -0.630000 0.000000
-1.000000 -0.620000 0.000000
-1.000000 -0.610000 0.000000
-1.000000 -0.600000 0.000000
-1.000000 -0.590000 0.000000
-1.000000 -0.580000 0.000000
-1.000000 -0.570000 0.000000
-1.000000 -0.560000 0.000000
-1.000000 -0.550000 0.000000
-1.000000 -0.540000 0.000000
-1.000000 -0.530000 0.000000
-1.000000 -0.520000 0.000000
-1.000000 -0.510000 0.000000
-1.000000 -0.500000 0.000000
-1.000000 -0.490000 0.000000
-1.000000 -0.480000 0.000000
-1.000000 -0.470000 0.000000
-1.000000 -0.460000 0.000000
-1.000000 -0.450000 0.000000
-1.000000 -0.440000 0.000000
-1.000000 -0.430000 0.000000
-1.000000 -0.420000 0.000000
-1.000000 -0.410000 0.000000
-1.000000 -0.400000 0.000000
-1.000000 -0.390000 0.000000
-1.000000 -0.380000 0.000000
-1.000000 -0.370000 0.000000
-1.000000 -0.360000 0.000000
-1.000000 -0.350000 0.000000
-1.000000 -0.340000 0.000000
-1.000000 -0.330000 0.000000
-1.000000 -0.320000 0.000000
-1.000000 -0.310000 0.000000
-1.000000 -0.300000 0.000000
-1.000000 -0.290000 0.000000
-1.000000 -0.280000 0.000000
-1.000000 -0.270000 0.000000
-1.000000 -0.260000 0.000000
-1.000000 -0.250000 0.000000
-1.000000 -0.240000 0.000000
-1.000000 -0.230000 0.000000
-1.000000 -0.220000 0.000000
-1.000000 -0.210000 0.000000
-1.000000 -0.200000 0.000000
-1.000000 -0.190000 0.000000
-1.000000 -0.180000 0.000000
-1.000000 -0.170000 0.000000
-1.000000 -0.160000 0.000000
-1.000000 -0.150000 0.000000
-1.000000 -0.140000 0.000000
-1.000000 -0.130000 0.000000
-1.000000 -0.120000 0.000000
-1.000000 -0.110000 0.000000
-1.000000 -0.100000 0.000000
-1.000000 -0.090000 0.000000
-1.000000 -0.080000 0.000000
-1.000000 -0.070000 0.000000
-1.000000 -0.060000 0.000000
-1.000000 -0.050000 0.000000
-1.000000 -0.040000 0.000000
-1.000000 -0.030000 0.000000
-1.000000 -0.020000 0.000000
-1.000000 -0.010000 0.000000
-1.000000 0.000000 0.000000
-1.000000 0.010000 0.000000
-1.000000 0.020000 0.000000
-1.000000 0.030000 0.000000
-1.000000 0.040000 0.000000
-1.000000 0.050000 0.000000
-1.000000 0.060000 0.000000
-1.000000 0.070000 0.000000
-1.000000 0.080000 0.000000
-1.000000 0.090000 0.000000
-1.000000 0.100000 0.000000
-1.000000 0.110000 0.000000
-1.000000 0.120000 0.000000
-1.000000 0.130000 0.000000
-1.000000 0.140000 0.000000
-1.000000 0.150000 0.000000
-1.000000 0.160000 0.000000
-1.000000 0.170000 0.000000
-1.000000 0.180000 0.000000
-1.000000 0.190000 0.000000
-1.000000 0.200000 0.000000
-1.000000 0.210000 0.000000
-1.000000 0.220000 0.000000
-1.000000 0.230000 0.000000
-1.000000 0.240000 0.000000
-1.000000 0.250000 0.000000
-1.000000 0.260000 0.000000
-1.000000 0.270000 0.000000
-1.000000 0.280000 0.000000
-1.000000 0.290000 0.000000
-1.000000 0.300000 0.000000
-1.000000 0.310000 0.000000
-1.000000 0.320000 0.000000
-1.000000 0.330000 0.000000
-1.000000 0.340000 0.000000
-1.000000 0.350000 0.000000
-1.000000 0.360000 0.000000
-1.000000 0.370000 0.000000
-1.000000 0.380000 0.000000
-1.000000 0.390000 0.000000
-1.000000 0.400000 0.000000
-1.000000 0.410000 0.000000
-1.000000 0.420000 0.000000
-1.000000 0.430000 0.000000
-1.000000 0.440000 0.000000
-1.000000 0.450000 0.000000
-1.000000 0.460000 0.000000
-1.000000 0.470000 0.000000
-1.000000 0.480000 0.000000
-1.000000 0.490000 0.000000
-1.000000 0.500000 0.000000
-1.000000 0.510000 0.000000
-1.000000 0.520000 0.000000
-1.000000 0.530000 0.000000
-1.000000 0.540000 0.000000
-1.000000 0.550000 0.000000
-1.000000 0.560000 0.000000
-1.000000 0.570000 0.000000
-1.000000 0.580000 0.000000
-1.000000 0.590000 0.000000
-1.000000 0.600000 0.000000
-1.000000 0.610000 0.000000
-1.000000 0.620000 0.000000
-1.000000 0.630000 0.000000
-1.000000 0.640000 0.000000
-1.000000 0.650000 0.000000
-1.000000 0.660000 0.000000
-1.000000 0.670000 0.000000
-1.000000 0.680000 0.000000
-1.000000 0.690000 0.000000
-1.000000 0.700000 0.000000
-1.000000 0.710000 0.000000
-1.000000 0.720000 0.000000
-1.000000 0.730000 0.000000
-1.000000 0.740000 0.000000
-1.000000 0.750000 0.000000
-1.000000 0.760000 0.000000
-1.000000 0.770000 0.000000
-1.000000 0.780000 0.000000
-1.000000 0.790000 0.000000
-1.000000 0.800000 0.000000
-1.000000 0.810000 0.000000
-1.000000 0.820000 0.000000
-1.000000 0.830000 0.000000
-1.000000 0.840000 0.000000
-1.000000 0.850000 0.000000
-1.000000 0.860000 0.000000
-1.000000 0.870000 0.000000
-1.000000 0.880000 0.000000
-1.000000 0.890000 0.000000
-1.000000 0.900000 0.000000
-1.000000 0.910000 0.000000
-1.000000 0.920000 0.000000
-1.000000 0.930000 0.000000
-1.000000 0.940000 0.000000
-1.000000 0.950000 0.000000
-1.000000 0.960000 0.000000
-1.000000 0.970000 0.000000
-1.000000 0.980000 0.000000
-1.000000 0.990000 0.000000
-1.000000 1.000000 0.000000
-0.990000 -1.000000 0.000000
-0.990000 -0.990000 0.000000
-0.990000 -0.980000 0.000000
-0.990000 -0.970000 0.000000
-0.990000 -0.960000 0.000000
-0.990000 -0.950000 0.000000
-0.990000 -0.940000 0.000000
-0.990000 -0.930000 0.000000
-0.990000 -0.920000 0.000000
-0.990000 -0.910000 0.000000
-0.990000 -0.900000 0.000000
-0.990000 -0.890000 0.000000
-0.990000 -0.880000 0.000000
-0.990000 -0.870000 0.000000
-0.990000 -0.860000 0.000000
-0.990000 -0.850000 0.000000
-0.990000 -0.840000 0.000000
-0.990000 -0.830000 0.000000
-0.990000 -0.820000 0.000000
-0.990000 -0.810000 0.000000
-0.990000 -0.800000 0.000000
-0.990000 -0.790000 0.000000
-0.990000 -0.780000 0.000000
-0.990000 -0.770000 0.000000
-0.990000 -0.760000 0.000000
-0.990000 -0.750000 0.000000
-0.990000 -0.740000 0.000000
-0.990000 -0.730000 0.000000
-0.990000 -0.720000 0.000000
-0.990000 -0.710000 0.000000
-0.990000 -0.700000 0.000000
-0.990000 -0.690000 0.000000
-0.990000 -0.680000 0.000000
-0.990000 -0.670000 0.000000
-0.990000 -0.660000 0.000000
-0.990000 -0.650000 0.000000
-0.990000 -0.640000 0.000000
-0.990000 -0.630000 0.000000
-0.990000 -0.620000 0.000000
-0.990000 -0.610000 0.000000
-0.990000 -0.600000 0.000000
-0.990000 -0.590000 0.000000
-0.990000 -0.580000 0.000000
-0.990000 -0.570000 0.000000
-0.990000 -0.560000 0.000000
-0.990000 -0.550000 0.000000
-0.990000 -0.540000 0.000000
-0.990000 -0.530000 0.000000
-0.990000 -0.520000 0.000000
-0.990000 -0.510000 0.000000
-0.990000 -0.500000 0.000000
-0.990000 -0.490000 0.000000
-0.990000 -0.480000 0.000000
-0.990000 -0.470000 0.000000
-0.990000 -0.460000 0.000000
-0.990000 -0.450000 0.000000
-0.990000 -0.440000 0.000000
-0.990000 -0.430000 0.000000
-0.990000 -0.420000 0.000000
-0.990000 -0.410000 0.000000
-0.990000 -0.400000 0.000000
-0.990000 -0.390000 0.000000
-0.990000 -0.380000 0.000000
-0.990000 -0.370000 0.000000
-0.990000 -0.360000 0.000000
-0.990000 -0.350000 0.000000
-0.990000 -0.340000 0.000000
-0.990000 -0.330000 0.000000
-0.990000 -0.320000 0.000000
-0.990000 -0.310000 0.000000
-0.990000 -0.300000 0.000000
-0.990000 -0.290000 0.000000
-0.990000 -0.280000 0.000000
-0.990000 -0.270000 0.000000
-0.990000 -0.260000 0.000000
-0.990000 -0.250000 0.000000
-0.990000 -0.240000 0.000000
-0.990000 -0.230000 0.000000
-0.990000 -0.220000 0.000000
-0.990000 -0.210000 0.000000
-0.990000 -0.200000 0.000000
-0.990000 -0.190000 0.000000
-0.990000 -0.180000 0.000000
-0.990000 -0.170000 0.000000
-0.990000 -0.160000 0.000000
-0.990000 -0.150000 0.000000
-0.990000 -0.140000 0.000000
-0.990000 -0.130000 0.000000
-0.990000 -0.120000 0.000000
-0.990000 -0.110000 0.000000
-0.990000 -0.100000 0.000000
-0.990000 -0.090000 0.000000
-0.990000 -0.080000 0.000000
-0.990000 -0.070000 0.000000
-0.990000 -0.060000 0.000000
-0.990000 -0.050000 0.000000
-0.990000 -0.040000 0.000000
-0.990000 -0.030000 0.000000
-0.990000 -0.020000 0.000000
-0.990000 -0.010000 0.000000
-0.990000 0.000000 0.000000
-0.990000 0.010000 0.000000
-0.990000 0.020000 0.000000
-0.990000 0.030000 0.000000
-0.990000 0.040000 0.000000
-0.990000 0.050000 0.000000
-0.990000 0.060000 0.000000
-0.990000 0.070000 0.000000
-0.990000 0.080000 0.000000
-0.990000 0.090000 0.000000
-0.990000 0.100000 0.000000
-0.990000 0.110000 0.000000
-0.990000 0.120000 0.000000
-0.990000 0.130000 0.000000
-0.990000 0.140000 0.000000
-0.990000 0.150000 0.000000
-0.990000 0.160000 0.000000
-0.990000 0.170000 0.000000
-0.990000 0.180000 0.000000
-0.990000 0.190000 0.000000
-0.990000 0.200000 0.000000
-0.990000 0.210000 0.000000
-0.990000 0.220000 0.000000
-0.990000 0.230000 0.000000
-0.990000 0.240000 0.000000
-0.990000 0.250000 0.000000
-0.990000 0.260000 0.000000
-0.990000 0.270000 0.000000
-0.990000 0.280000 0.000000
-0.990000 0.290000 0.000000
-0.990000 0.300000 0.000000
-0.990000 0.310000 0.000000
-0.990000 0.320000 0.000000
-0.990000 0.330000 0.000000
-0.990000 0.340000 0.000000
-0.990000 0.350000 0.000000
-0.990000 0.360000 0.000000
-0.990000 0.370000 0.000000
-0.990000 0.380000 0.000000
-0.990000 0.390000 0.000000
-0.990000 0.400000 0.000000
-0.990000 0.410000 0.000000
-0.990000 0.420000 0.000000
-0.990000 0.430000 0.000000
[...]
POINT_DATA 40401
SCALARS phi FLOAT 1
LOOKUP_TABLE default
0.000000000000
0.000000000000
0.000000000000
0.000000000000
0.000000000000
0.000000000000
0.000000000000
0.000000000000
0.000000000000
0.000000000000
0.000000000000
0.000000000000
0.000000000000
0.000000000000
0.000000000000
0.000000000000
0.000000000000
0.000000000000
0.000000000000
0.000000000000
0.000000000000
0.000000000000
0.000000000000
0.000000000000
0.000000000000
0.000000000000
0.000000000000
0.000000000000
0.000000000000
0.000000000000
0.000000000000
0.000000000000
0.000000000000
0.000000000000
0.000000000000
0.000000000000
0.000000000000
0.000000000000
0.000000000000
0.000000000000
0.000000000000
0.000000000000
0.000000000000
0.000000000000
0.000000000000
0.000000000000
0.000000000000
0.000000000000
0.000000000000
0.000000000000
0.000000000000
0.000000000000
0.000000000000
0.000000000000
0.000000000000
0.000000000000
0.000000000000
0.000000000000
0.000000000000
0.000000000000
0.000000000000
0.000000000000
0.000000000000
0.000000000000
0.000000000000
0.000000000000
0.000000000000
0.000000000000
0.000000000000
0.000000000000
0.000000000000
0.000000000000
0.000000000000
0.000000000000
0.000000000000
0.000000000000
0.000000000000
0.000000000000
0.000000000000
0.000000000000
0.000000000000
0.000000000000
0.000000000000
0.000000000000
0.000000000000
0.000000000000
0.000000000000
0.000000000000
0.000000000000
0.000000000000
0.000000000000
0.000000000000
0.000000000000
0.000000000000
0.000000000000
0.000000000000
0.000000000000
0.000000000000
0.000000000000
0.000000000000
0.000000000000
0.000000000000
0.000000000000
0.000000000000
0.000000000000
0.000000000000
0.000000000000
0.000000000000
0.000000000000
0.000000000000
0.000000000000
0.000000000000
0.000000000000
0.000000000000
0.000000000000
0.000000000000
0.000000000000
0.000000000000
0.000000000000
0.000000000000
0.000000000000
0.000000000000
0.000000000000
0.000000000000
0.000000000000
0.000000000000
0.000000000000
0.000000000000
0.000000000000
0.000000000000
0.000000000000
0.000000000000
0.000000000000
0.000000000000
0.000000000000
0.000000000000
0.000000000000
0.000000000000
0.000000000000
0.000000000000
0.000000000000
0.000000000000
0.000000000000
0.000000000000
0.000000000000
0.000000000000
0.000000000000
0.000000000000
0.000000000000
0.000000000000
0.000000000000
0.000000000000
0.000000000000
0.000000000000
0.000000000000
0.000000000000
0.000000000000
0.000000000000
0.000000000000
0.000000000000
0.000000000000
0.000000000000
0.000000000000
0.000000000000
0.000000000000
0.000000000000
0.000000000000
0.000000000000
0.000000000000
0.000000000000
0.000000000000
0.000000000000
0.000000000000
0.000000000000
0.000000000000
0.000000000000
0.000000000000
0.000000000000
0.000000000000
0.000000000000
0.000000000000
0.000000000000
0.000000000000
0.000000000000
0.000000000000
0.000000000000
0.000000000000
0.000000000000
0.000000000000
0.000000000000
0.000000000000
0.000000000000
0.000000000000
0.000000000000
0.000000000000
0.000000000000
0.000000000000
0.000000000000
0.000000000000
0.000000000000
0.000000000000
0.000000000000
-0.000536734929
-0.000794044718
0.001352009360
0.001722151211
-0.001392930587
-0.002409212994
0.000581702449
0.002174535484
0.000255573226
-0.001018502295
0.000001177700
0.000279590300
-0.000977942175
-0.000937497403
0.001034762918
0.002042942455
0.000685611956
-0.000907009287
-0.000784977582
0.000210677665
0.000536713275
0.000465198218
0.001196135450
0.002649880337
0.003453573280
0.002821584764
0.001530410491
0.000852351366
0.001076844366
0.001386481227
0.001002018751
0.000112216306
-0.000428094907
-0.000118265205
0.000601423975
0.000851038829
0.000256013034
-0.000656640163
-0.001007219205
-0.000471658718
0.000427134772
0.000811308121
0.000320576767
-0.000616882827
-0.001156455898
-0.000836477395
0.000088460784
0.000863387447
0.000895016936
0.000181278075
-0.000719888547
-0.001147404923
-0.000816235935
0.000031257209
0.000820863977
0.001069820100
0.000649214721
-0.000146270210
-0.000853438095
-0.001079195557
-0.000746739862
-0.000048462983
0.000636182597
0.001000819428
0.000889575908
0.000402080976
-0.000244624415
-0.000762807446
-0.000979297517
-0.000822718616
-0.000394564062
0.000152793875
0.000617442319
0.000875291323
0.000854603987
0.000595007236
0.000177305534
-0.000269758944
-0.000639191811
-0.000845550058
-0.000858287580
-0.000687767426
-0.000383684805
-0.000014566692
0.000346943939
0.000638598176
0.000817254679
0.000864485881
0.000781631051
0.000592821848
0.000327657139
0.000029497696
-0.000269036238
-0.000529534542
-0.000733364615
-0.000860325148
-0.000909452059
-0.000880037517
-0.000783029920
-0.000631195211
-0.000438848717
-0.000224194822
0.000001467788
0.000221179769
0.000429065524
0.000613477722
0.000773081009
0.000902962263
0.001004009444
0.001077244542
0.001123876522
0.001148463710
0.001152124165
0.001139877569
0.001113746730
0.001076693575
0.001032874837
0.000982372743
0.000931400217
0.000878404076
0.000829645933
0.000784382381
0.000746241643
0.000717104804
0.000697093332
0.000690233566
0.000695389917
0.000715987565
0.000753174381
0.000807148505
0.000882424727
0.000976501258
0.001094245134
0.001234065148
0.001396903770
0.001584174615
0.001791911035
0.002021147581
0.002266050938
0.002521737138
0.002782589549
0.003037215798
0.003276877191
0.003487877549
0.003654677923
0.003763007748
0.003796054505
0.003736861939
0.003578074308
0.003302539715
0.002916833349
0.002414822667
0.001821100352
0.001147230699
0.000445410978
-0.000263848999
-0.000903534739
-0.001455811167
-0.001842000182
-0.002060175256
-0.002054245987
-0.001861177469
-0.001468180849
-0.000953588670
-0.000366431832
0.000209457974
0.000681112900
0.001009343364
0.001105049824
0.001037722416
0.000722439916
0.000400507390
-0.000091989238
-0.000327572327
-0.000666779561
-0.000569361227
-0.000580605846
-0.000243256447
-0.000045088206
0.000217786947
0.000336466496
0.000340312865
0.000236827884
0.000097567899
-0.000082899949
-0.000151466722
-0.000183750126
-0.000134150275
-0.000035260115
0.000035374734
0.000086975892
0.000087285468
0.000042790877
0.000003459787
-0.000032697738
-0.000037293179
-0.000036577139
-0.000007080747
0.000026616470
0.000000000000
0.000000000000
-0.000592320986
0.001460072656
0.001906049189
-0.002170046447
-0.003177397128
0.001627358292
0.003574489665
-0.000361248930
-0.002504370040
-0.000084893529
0.000988330480
-0.000936942323
-0.000883826914
0.001925080830
0.002446643444
-0.000606124650
-0.002560767451
-0.000915578010
0.001186348417
0.000856057332
-0.000292429988
0.000294876523
0.001777927353
0.001537188942
-0.000688809926
-0.002465372930
-0.002037501853
-0.000410520323
0.000246266212
-0.000717572979
-0.001905287168
-0.001765007809
-0.000372399204
0.000754235204
0.000386829863
-0.001078588954
-0.002087336770
-0.001504910114
0.000199232485
0.001465494113
0.001126667434
-0.000465793453
-0.001809105907
-0.001645785796
-0.000047603210
0.001646231798
0.002071106072
0.000878148661
-0.000947009737
-0.002025244882
-0.001538526976
0.000105016675
0.001760298080
0.002287519569
0.001403298986
-0.000302534852
-0.001743205274
-0.002100879468
-0.001220915678
0.000337629076
0.001714050315
0.002214787547
0.001647301660
0.000350585081
-0.001041729439
-0.001911338489
-0.001937955492
-0.001168785491
0.000030678499
0.001186572333
0.001883328932
0.001923637697
0.001339560276
0.000367575971
-0.000676841883
-0.001485089334
-0.001860993195
-0.001736522200
-0.001187599991
-0.000373471859
0.000496086018
0.001233684943
0.001694014688
0.001812005947
0.001588903472
0.001091485747
0.000423019112
-0.000299110304
-0.000959471886
-0.001474239771
-0.001778127684
-0.001857839517
-0.001710042328
-0.001381022129
-0.000906370067
-0.000357890458
0.000221207579
0.000766085167
0.001247163122
0.001624966900
0.001889597210
0.002030524343
0.002052492150
0.001967894955
0.001787218169
0.001535963159
0.001223442876
0.000878491418
0.000506871168
0.000132840162
-0.000239938816
-0.000596935990
-0.000934001890
-0.001247906670
-0.001533104841
-0.001795071931
-0.002028786344
-0.002242448791
-0.002434976324
-0.002610974741
-0.002775162051
-0.002926166210
-0.003072262712
-0.003209804970
-0.003344638536
-0.003477585391
-0.003606350643
-0.003739195766
-0.003865393177
-0.003995804310
-0.004117389597
-0.004235086188
-0.004339711064
-0.004427119603
-0.004489836660
-0.004520678167
-0.004504720752
-0.004440010028
-0.004300738430
-0.004090403569
-0.003781595102
-0.003376815550
-0.002857711592
-0.002228196575
-0.001478648983
-0.000631490323
0.000317495568
0.001316987676
0.002358009124
0.003370061335
0.004320980990
0.005129694152
0.005754048441
0.006108395206
0.006171659617
0.005887023178
0.005270551423
0.004339545415
0.003154106858
0.001815568139
0.000425902613
-0.000849267831
-0.001925854460
-0.002611453456
-0.002930406571
-0.002742689363
-0.002222781525
-0.001336809549
-0.000397781642
0.000593516900
0.001260048086
0.001714244195
0.001638721020
0.001351303232
0.000687847200
0.000042319689
-0.000549143283
-0.000926503062
-0.000944825351
-0.000762735574
-0.000349717644
0.000075149529
0.000379718967
0.000534667127
0.000458762353
0.000237397126
0.000015304530
-0.000202301955
-0.000264954335
-0.000217171294
-0.000105298349
0.000040657124
0.000109906988
0.000123407397
0.000073550177
0.000009709755
-0.000029917105
-0.000085954472
-0.000020416175
0.000000000000
0.000000000000
0.000572391028
0.001054896160
-0.001462533008
-0.002099201279
0.001647103392
0.002744181424
-0.001146178476
-0.002520923937
0.000696685782
0.001683829246
-0.000930735103
-0.001106231645
0.001707463411
0.001682766660
-0.001572214404
-0.002200652147
0.000936613887
0.002410170942
-0.000044362260
-0.002030896070
-0.000303179449
0.002172216736
0.001541961956
-0.000905213163
-0.001165486053
0.001369541008
0.003285404581
0.002092127829
-0.000677711922
-0.001772894241
-0.000246220221
0.001776161964
0.001880658084
-0.000016993129
-0.001793111579
-0.001535897935
0.000570414487
0.002511961259
0.002438908429
0.000413199940
-0.001737867468
-0.002047026405
-0.000238677756
0.002149157865
0.003029264712
0.001628114332
-0.000988001124
-0.002759741238
-0.002334663791
-0.000049904194
0.002400358409
0.003238897347
0.001913247792
-0.000684177750
-0.002814492871
-0.003189584912
-0.001605381296
0.000893321048
0.002884153189
0.003255390958
0.001924266112
-0.000377806342
-0.002428029621
-0.003298626676
-0.002631430509
-0.000843163868
0.001262497510
0.002785817506
0.003193041949
0.002391923104
0.000775174423
-0.001056181750
-0.002465076972
-0.003053054028
-0.002687280816
-0.001562506631
-0.000028666637
0.001458683362
0.002549811686
0.002989080410
0.002749855116
0.001907894963
0.000710610031
-0.000609059095
-0.001765813351
-0.002595256565
-0.002954067396
-0.002845628581
-0.002297611553
-0.001441226563
-0.000398719815
0.000670271463
0.001643423750
0.002413619782
0.002914191887
0.003120323568
0.003027926164
0.002680482533
0.002113282729
0.001404107367
0.000598251160
-0.000225358472
-0.001031501712
-0.001762001422
-0.002398196169
-0.002911873432
-0.003297215237
-0.003555313776
-0.003685657344
-0.003711408412
-0.003631808557
-0.003480880131
-0.003257209520
-0.002993113544
-0.002690780649
-0.002370441260
-0.002042896488
-0.001712042996
-0.001397808369
-0.001091808114
-0.000816484429
-0.000561488554
-0.000341500490
-0.000154309876
-0.000001320238
0.000109058516
0.000183307036
0.000209755257
0.000190391174
0.000120578774
-0.000009020805
-0.000194375585
-0.000449018682
-0.000770565684
-0.001162382228
-0.001632919769
-0.002169801877
-0.002784606307
-0.003458080446
-0.004186469065
-0.004951850914
-0.005729850123
-0.006494092900
-0.007212235834
-0.007834153647
-0.008326923443
-0.008628303175
-0.008698333034
-0.008495199756
-0.007977810504
-0.007139408947
-0.005971085157
-0.004509083834
-0.002800299279
-0.000954180250
0.000944276006
0.002707202315
0.004241395722
0.005343145248
0.005957731423
0.005941255770
0.005367660856
0.004202330673
0.002687664655
0.000928661463
-0.000751859893
-0.002174919782
-0.003079994920
-0.003395469994
-0.003043946377
-0.002204909628
-0.000976305989
0.000222013502
0.001312777251
0.001861668981
0.001983924938
0.001532687031
0.000811546302
-0.000047755862
-0.000719357381
-0.001088816201
-0.001047945943
-0.000705527906
-0.000197549330
0.000275943939
0.000542400799
0.000564021017
0.000382430710
0.000082516647
-0.000154874851
-0.000294161114
-0.000253543081
-0.000128472911
0.000012500159
0.000128352453
0.000111408941
0.000103964566
0.000011111448
-0.000086860279
0.000000000000
0.000000000000
0.000169733841
-0.000099869618
-0.000408019257
0.000285811468
0.000433782489
-0.000695597041
-0.000410883873
0.001331833892
0.000729290854
-0.001677359968
-0.001160521435
0.001573211407
0.001322624025
-0.001269891574
-0.000852009615
0.001956686692
0.001335378646
-0.002675193091
-0.003563731955
0.000509986078
0.003430653290
0.001060268924
-0.002464859044
-0.001739780585
0.001630886895
0.001963095759
-0.001836591541
-0.004875540590
-0.003234505286
0.001054569690
0.003003652373
0.000875795373
-0.002319397638
-0.002793752629
-0.000132183415
0.002719685019
0.002879049724
0.000246438633
-0.002635495241
-0.003196718480
-0.001006918679
0.001965890443
0.003181897788
0.001615785066
-0.001490727569
-0.003652103417
-0.003177500402
-0.000366600196
0.002667057891
0.003725840796
0.002005965693
-0.001265514352
-0.003875664236
-0.004064513254
-0.001738930479
0.001632830292
0.003985424444
0.003964313024
0.001650056438
-0.001618094273
-0.004054039904
-0.004450560389
-0.002674767226
0.000306213095
0.003087489915
0.004419294209
0.003843428017
0.001673825392
-0.001103399153
-0.003432952092
-0.004457909123
-0.003941802286
-0.002120707444
0.000297410534
0.002568584951
0.004002630879
0.004292158544
0.003410248236
0.001696008939
-0.000397952838
-0.002335184490
-0.003716120178
-0.004275306680
-0.003970509459
-0.002914492245
-0.001356496686
0.000402013467
0.002061245711
0.003370781525
0.004169253665
0.004378589777
0.004021834563
0.003175750341
0.001985017904
0.000592054399
-0.000831296141
-0.002163577362
-0.003275375799
-0.004110877696
-0.004610031001
-0.004782948693
-0.004632635934
-0.004208847245
-0.003555972453
-0.002731724495
-0.001798598567
-0.000799994620
0.000202280858
0.001186328346
0.002104549236
0.002950920012
0.003700738570
0.004352707150
0.004907941673
0.005361658732
0.005735966863
0.006022738102
0.006252411141
0.006421161067
0.006552133652
0.006653908739
0.006733021731
0.006810349101
0.006880142556
0.006964238057
0.007059672446
0.007173864681
0.007318322452
0.007480126898
0.007680246840
0.007896057067
0.008139582223
0.008395165331
0.008653857034
0.008908532374
0.009138082475
0.009325226663
0.009455516359
0.009487478698
0.009416823866
0.009192316923
0.008804361198
0.008217592634
0.007414835721
0.006379976627
0.005121090496
0.003632362389
0.001977640137
0.000175428890
-0.001666171013
-0.003480895562
-0.005134248148
-0.006532942485
-0.007517839589
-0.008028914873
-0.007928840327
-0.007233753447
-0.005918428472
-0.004110734779
-0.001926813381
0.000366776476
0.002567666158
0.004358590089
0.005541088015
0.005938116865
0.005495777120
0.004296747085
0.002549306727
0.000542777491
-0.001307662962
-0.002771721366
-0.003415387241
-0.003404122187
-0.002512556868
-0.001291672973
0.000158295389
0.001308102280
0.001963042012
0.001990805876
0.001446668929
0.000573335732
-0.000288374016
-0.000942232692
-0.001122188645
-0.000911760793
-0.000428122260
0.000110003134
0.000476875322
0.000576840900
0.000439488285
0.000141848155
-0.000134492811
-0.000251128686
-0.000278667188
-0.000118113091
0.000020062045
0.000079098453
0.000179740559
0.000025228884
0.000000000000
0.000000000000
0.000477201969
0.000645607811
-0.001103315915
-0.001493051845
0.000775924628
0.002122394253
0.000604191691
-0.001638114324
-0.001894171272
0.000191784521
0.001973833476
0.000924454252
-0.001038106929
-0.000356458075
0.001326227296
-0.000373250850
-0.003723992731
-0.002642012017
0.002384586127
0.003788630437
-0.000923818384
-0.004652894196
-0.001793637309
0.003056724321
0.002433945944
-0.002587328968
-0.004220449559
0.000461123385
0.005497640037
0.004378829336
-0.001488335995
-0.005071900237
-0.002617137804
0.002473047190
0.004272067129
0.001099419817
-0.003369819743
-0.004526027902
-0.001437829735
0.002792146094
0.004388620432
0.002164937127
-0.001777815250
-0.004198597488
-0.003242052746
0.000248193800
0.003630809438
0.004437365406
0.002103871792
-0.001714142387
-0.004406076754
-0.004119430563
-0.001054150706
0.002856870861
0.005112572468
0.004359136049
0.001016795665
-0.002920758828
-0.005259372192
-0.004711721216
-0.001653350253
0.002312794092
0.005166999381
0.005594410685
0.003458317465
-0.000174067448
-0.003698234381
-0.005645479582
-0.005332415861
-0.002979199649
0.000424874789
0.003633114274
0.005554650091
0.005654916428
0.003998081279
0.001199050617
-0.001887434858
-0.004392503657
-0.005715927685
-0.005599152171
-0.004176143344
-0.001846760889
0.000818681319
0.003265962413
0.005022477690
0.005832679305
0.005598181076
0.004461322570
0.002628782876
0.000462441150
-0.001755534147
-0.003680957557
-0.005143587499
-0.005960090625
-0.006131042585
-0.005652342288
-0.004648126289
-0.003233518951
-0.001568586525
0.000190392607
0.001920153810
0.003481449979
0.004821158943
0.005845394670
0.006566963424
0.006942958346
0.007025461816
0.006816506322
0.006375702462
0.005739278417
0.004951026003
0.004067504390
0.003108885100
0.002134770517
0.001149265009
0.000196685712
-0.000719396380
-0.001582557062
-0.002378075165
-0.003116608781
-0.003774203696
-0.004372683356
-0.004893945088
-0.005348970554
-0.005740499159
-0.006056573726
-0.006319105111
-0.006501469070
-0.006624122475
-0.006667043924
-0.006628994770
-0.006508003666
-0.006284451086
-0.005960647263
-0.005523707034
-0.004957148574
-0.004272564663
-0.003437245974
-0.002477048965
-0.001375675834
-0.000155323013
0.001163625681
0.002550656123
0.003966459422
0.005337854940
0.006624713542
0.007711807287
0.008546777649
0.009020861267
0.009073193064
0.008634483066
0.007692975419
0.006227032039
0.004328361225
0.002064788908
-0.000378108651
-0.002813107847
-0.004997170148
-0.006706966700
-0.007704588089
-0.007871928470
-0.007126109689
-0.005538768198
-0.003313224770
-0.000722775689
0.001813319873
0.003935670109
0.005268562026
0.005608017160
0.004950234668
0.003372519691
0.001381725064
-0.000755150358
-0.002400407770
-0.003310298795
-0.003308855972
-0.002436215392
-0.001106507645
0.000376199934
0.001467834019
0.001969183510
0.001758054649
0.001064499428
0.000098246374
-0.000641861242
-0.001050953000
-0.000974668688
-0.000538457531
-0.000027776283
0.000391796035
0.000557806283
0.000399799772
0.000172148205
-0.000096826915
-0.000279278975
-0.000183521030
-0.000150110506
0.000028536538
0.000157837065
0.000000000000
0.000000000000
0.000623616403
-0.001222433838
-0.001932768633
0.001624840916
0.003048039902
-0.000755108021
-0.003141572691
-0.000653029641
0.002018977008
0.001456393209
-0.000457518042
-0.001088716465
-0.000102933905
0.000632287170
-0.000771396976
-0.002694735254
-0.001472655624
0.001849780198
0.001594273946
-0.003027325069
-0.004967585453
-0.000200485915
0.004834036054
0.002576398036
-0.003761341724
-0.004691562074
0.001325088458
0.005555403881
0.001667732208
-0.005356166190
-0.006112406115
0.000712036056
0.007048095412
0.005751391100
-0.001144143706
-0.005608183871
-0.003057752028
0.003286307047
0.006639804636
0.003883061412
-0.002052297686
-0.005681463372
-0.004143625519
0.000816338295
0.004979602325
0.005196886427
0.001601350768
-0.003036606210
-0.005435782068
-0.004104818857
-0.000030685864
0.004087749560
0.005655166481
0.003727033670
-0.000532591021
-0.004580530983
-0.006098615795
-0.004190069476
0.000050652092
0.004384856288
0.006494578174
0.005381586663
0.001576664535
-0.003002899731
-0.006283133746
-0.006770210077
-0.004383892711
-0.000147253826
0.004127301809
0.006841533080
0.007002690023
0.004711085759
0.000819071381
-0.003272669094
-0.006309648568
-0.007386203864
-0.006347252245
-0.003548354982
0.000113914083
0.003725376153
0.006358038249
0.007535916630
0.007027517823
0.005111414729
0.002195562253
-0.001053580027
-0.004083966629