# vtk DataFile Version 2.0
TITLE = "Quad data"
ASCII
DATASET STRUCTURED_GRID
DIMENSIONS 201 201 1
POINTS 40401 FLOAT
-1.000000 -1.000000 0.000000
-1.000000 -0.990000 0.000000
-1.000000 -0.980000 0.000000
-1.000000 -0.970000 0.000000
-1.000000 -0.960000 0.000000
-1.000000 -0.950000 0.000000
-1.000000 -0.940000 0.000000
-1.000000 -0.930000 0.000000
-1.000000 -0.920000 0.000000
-1.000000 -0.910000 0.000000
-1.000000 -0.900000 0.000000
-1.000000 -0.890000 0.000000
-1.000000 -0.880000 0.000000
-1.000000 -0.870000 0.000000
-1.000000 -0.860000 0.000000
-1.000000 -0.850000 0.000000
-1.000000 -0.840000 0.000000
-1.000000 -0.830000 0.000000
-1.000000 -0.820000 0.000000
-1.000000 -0.810000 0.000000
-1.000000 -0.800000 0.000000
-1.000000 -0.790000 0.000000
-1.000000 -0.780000 0.000000
-1.000000 -0.770000 0.000000
-1.000000 -0.760000 0.000000
-1.000000 -0.750000 0.000000
-1.000000 -0.740000 0.000000
-1.000000 -0.730000 0.000000
-1.000000 -0.720000 0.000000
-1.000000 -0.710000 0.000000
-1.000000 -0.700000 0.000000
-1.000000 -0.690000 0.000000
-1.000000 -0.680000 0.000000
-1.000000 -0.670000 0.000000
-1.000000 -0.660000 0.000000
-1.000000 -0.650000 0.000000
-1.000000 -0.640000 0.000000
-1.000000 -0.630000 0.000000
-1.000000 -0.620000 0.000000
-1.000000 -0.610000 0.000000
-1.000000 -0.600000 0.000000
-1.000000 -0.590000 0.000000
-1.000000 -0.580000 0.000000
-1.000000 -0.570000 0.000000
-1.000000 -0.560000 0.000000
-1.000000 -0.550000 0.000000
-1.000000 -0.540000 0.000000
-1.000000 -0.530000 0.000000
-1.000000 -0.520000 0.000000
-1.000000 -0.510000 0.000000
-1.000000 -0.500000 0.000000
-1.000000 -0.490000 0.000000
-1.000000 -0.480000 0.000000
-1.000000 -0.470000 0.000000
-1.000000 -0.460000 0.000000
-1.000000 -0.450000 0.000000
-1.000000 -0.440000 0.000000
-1.000000 -0.430000 0.000000
-1.000000 -0.420000 0.000000
-1.000000 -0.410000 0.000000
-1.000000 -0.400000 0.000000
-1.000000 -0.390000 0.000000
-1.000000 -0.380000 0.000000
-1.000000 -0.370000 0.000000
-1.000000 -0.360000 0.000000
-1.000000 -0.350000 0.000000
-1.000000 -0.340000 0.000000
-1.000000 -0.330000 0.000000
-1.000000 -0.320000 0.000000
-1.000000 -0.310000 0.000000
-1.000000 -0.300000 0.000000
-1.000000 -0.290000 0.000000
-1.000000 -0.280000 0.000000
-1.000000 -0.270000 0.000000
-1.000000 -0.260000 0.000000
-1.000000 -0.250000 0.000000
-1.000000 -0.240000 0.000000
-1.000000 -0.230000 0.000000
-1.000000 -0.220000 0.000000
-1.000000 -0.210000 0.000000
-1.000000 -0.200000 0.000000
-1.000000 -0.190000 0.000000
-1.000000 -0.180000 0.000000
-1.000000 -0.170000 0.000000
-1.000000 -0.160000 0.000000
-1.000000 -0.150000 0.000000
-1.000000 -0.140000 0.000000
-1.000000 -0.130000 0.000000
-1.000000 -0.120000 0.000000
-1.000000 -0.110000 0.000000
-1.000000 -0.100000 0.000000
-1.000000 -0.090000 0.000000
-1.000000 -0.080000 0.000000
-1.000000 -0.070000 0.000000
-1.000000 -0.060000 0.000000
-1.000000 -0.050000 0.000000
-1.000000 -0.040000 0.000000
-1.000000 -0.030000 0.000000
-1.000000 -0.020000 0.000000
-1.000000 -0.010000 0.000000
-1.000000 0.000000 0.000000
-1.000000 0.010000 0.000000
-1.000000 0.020000 0.000000
-1.000000 0.030000 0.000000
-1.000000 0.040000 0.000000
-1.000000 0.050000 0.000000
-1.000000 0.060000 0.000000
-1.000000 0.070000 0.000000
-1.000000 0.080000 0.000000
-1.000000 0.090000 0.000000
-1.000000 0.100000 0.000000
-1.000000 0.110000 0.000000
-1.000000 0.120000 0.000000
-1.000000 0.130000 0.000000
-1.000000 0.140000 0.000000
-1.000000 0.150000 0.000000
-1.000000 0.160000 0.000000
-1.000000 0.170000 0.000000
-1.000000 0.180000 0.000000
-1.000000 0.190000 0.000000
-1.000000 0.200000 0.000000
-1.000000 0.210000 0.000000
-1.000000 0.220000 0.000000
-1.000000 0.230000 0.000000
-1.000000 0.240000 0.000000
-1.000000 0.250000 0.000000
-1.000000 0.260000 0.000000
-1.000000 0.270000 0.000000
-1.000000 0.280000 0.000000
-1.000000 0.290000 0.000000
-1.000000 0.300000 0.000000
-1.000000 0.310000 0.000000
-1.000000 0.320000 0.000000
-1.000000 0.330000 0.000000
-1.000000 0.340000 0.000000
-1.000000 0.350000 0.000000
-1.000000 0.360000 0.000000
-1.000000 0.370000 0.000000
-1.000000 0.380000 0.000000
-1.000000 0.390000 0.000000
-1.000000 0.400000 0.000000
-1.000000 0.410000 0.000000
-1.000000 0.420000 0.000000
-1.000000 0.430000 0.000000
-1.000000 0.440000 0.000000
-1.000000 0.450000 0.000000
-1.000000 0.460000 0.000000
-1.000000 0.470000 0.000000
-1.000000 0.480000 0.000000
-1.000000 0.490000 0.000000
-1.000000 0.500000 0.000000
-1.000000 0.510000 0.000000
-1.000000 0.520000 0.000000
-1.000000 0.530000 0.000000
-1.000000 0.540000 0.000000
-1.000000 0.550000 0.000000
-1.000000 0.560000 0.000000
-1.000000 0.570000 0.000000
-1.000000 0.580000 0.000000
-1.000000 0.590000 0.000000
-1.000000 0.600000 0.000000
-1.000000 0.610000 0.000000
-1.000000 0.620000 0.000000
-1.000000 0.630000 0.000000
-1.000000 0.640000 0.000000
-1.000000 0.650000 0.000000
-1.000000 0.660000 0.000000
-1.000000 0.670000 0.000000
-1.000000 0.680000 0.000000
-1.000000 0.690000 0.000000
-1.000000 0.700000 0.000000
-1.000000 0.710000 0.000000
-1.000000 0.720000 0.000000
-1.000000 0.730000 0.000000
-1.000000 0.740000 0.000000
-1.000000 0.750000 0.000000
-1.000000 0.760000 0.000000
-1.000000 0.770000 0.000000
-1.000000 0.780000 0.000000
-1.000000 0.790000 0.000000
-1.000000 0.800000 0.000000
-1.000000 0.810000 0.000000
-1.000000 0.820000 0.000000
-1.000000 0.830000 0.000000
-1.000000 0.840000 0.000000
-1.000000 0.850000 0.000000
-1.000000 0.860000 0.000000
-1.000000 0.870000 0.000000
-1.000000 0.880000 0.000000
-1.000000 0.890000 0.000000
-1.000000 0.900000 0.000000
-1.000000 0.910000 0.000000
-1.000000 0.920000 0.000000
-1.000000 0.930000 0.000000
-1.000000 0.940000 0.000000
-1.000000 0.950000 0.000000
-1.000000 0.960000 0.000000
-1.000000 0.970000 0.000000
-1.000000 0.980000 0.000000
-1.000000 0.990000 0.000000
-1.000000 1.000000 0.000000
-0.990000 -1.000000 0.000000
-0.990000 -0.990000 0.000000
-0.990000 -0.980000 0.000000
-0.990000 -0.970000 0.000000
-0.990000 -0.960000 0.000000
-0.990000 -0.950000 0.000000
-0.990000 -0.940000 0.000000
-0.990000 -0.930000 0.000000
-0.990000 -0.920000 0.000000
-0.990000 -0.910000 0.000000
-0.990000 -0.900000 0.000000
-0.990000 -0.890000 0.000000
-0.990000 -0.880000 0.000000
-0.990000 -0.870000 0.000000
-0.990000 -0.860000 0.000000
-0.990000 -0.850000 0.000000
-0.990000 -0.840000 0.000000
-0.990000 -0.830000 0.000000
-0.990000 -0.820000 0.000000
-0.990000 -0.810000 0.000000
-0.990000 -0.800000 0.000000
-0.990000 -0.790000 0.000000
-0.990000 -0.780000 0.000000
-0.990000 -0.770000 0.000000
-0.990000 -0.760000 0.000000
-0.990000 -0.750000 0.000000
-0.990000 -0.740000 0.000000
-0.990000 -0.730000 0.000000
-0.990000 -0.720000 0.000000
-0.990000 -0.710000 0.000000
-0.990000 -0.700000 0.000000
-0.990000 -0.690000 0.000000
-0.990000 -0.680000 0.000000
-0.990000 -0.670000 0.000000
-0.990000 -0.660000 0.000000
-0.990000 -0.650000 0.000000
-0.990000 -0.640000 0.000000
-0.990000 -0.630000 0.000000
-0.990000 -0.620000 0.000000
-0.990000 -0.610000 0.000000
-0.990000 -0.600000 0.000000
-0.990000 -0.590000 0.000000
-0.990000 -0.580000 0.000000
-0.990000 -0.570000 0.000000
-0.990000 -0.560000 0.000000
-0.990000 -0.550000 0.000000
-0.990000 -0.540000 0.000000
-0.990000 -0.530000 0.000000
-0.990000 -0.520000 0.000000
-0.990000 -0.510000 0.000000
-0.990000 -0.500000 0.000000
-0.990000 -0.490000 0.000000
-0.990000 -0.480000 0.000000
-0.990000 -0.470000 0.000000
-0.990000 -0.460000 0.000000
-0.990000 -0.450000 0.000000
-0.990000 -0.440000 0.000000
-0.990000 -0.430000 0.000000
-0.990000 -0.420000 0.000000
-0.990000 -0.410000 0.000000
-0.990000 -0.400000 0.000000
-0.990000 -0.390000 0.000000
-0.990000 -0.380000 0.000000
-0.990000 -0.370000 0.000000
-0.990000 -0.360000 0.000000
-0.990000 -0.350000 0.000000
-0.990000 -0.340000 0.000000
-0.990000 -0.330000 0.000000
-0.990000 -0.320000 0.000000
-0.990000 -0.310000 0.000000
-0.990000 -0.300000 0.000000
-0.990000 -0.290000 0.000000
-0.990000 -0.280000 0.000000
-0.990000 -0.270000 0.000000
-0.990000 -0.260000 0.000000
-0.990000 -0.250000 0.000000
-0.990000 -0.240000 0.000000
-0.990000 -0.230000 0.000000
-0.990000 -0.220000 0.000000
-0.990000 -0.210000 0.000000
-0.990000 -0.200000 0.000000
-0.990000 -0.190000 0.000000
-0.990000 -0.180000 0.000000
-0.990000 -0.170000 0.000000
-0.990000 -0.160000 0.000000
-0.990000 -0.150000 0.000000
-0.990000 -0.140000 0.000000
-0.990000 -0.130000 0.000000
-0.990000 -0.120000 0.000000
-0.990000 -0.110000 0.000000
-0.990000 -0.100000 0.000000
-0.990000 -0.090000 0.000000
-0.990000 -0.080000 0.000000
-0.990000 -0.070000 0.000000
-0.990000 -0.060000 0.000000
-0.990000 -0.050000 0.000000
-0.990000 -0.040000 0.000000
-0.990000 -0.030000 0.000000
-0.990000 -0.020000 0.000000
-0.990000 -0.010000 0.000000
-0.990000 0.000000 0.000000
-0.990000 0.010000 0.000000
-0.990000 0.020000 0.000000
-0.990000 0.030000 0.000000
-0.990000 0.040000 0.000000
-0.990000 0.050000 0.000000
-0.990000 0.060000 0.000000
-0.990000 0.070000 0.000000
-0.990000 0.080000 0.000000
-0.990000 0.090000 0.000000
-0.990000 0.100000 0.000000
-0.990000 0.110000 0.000000
-0.990000 0.120000 0.000000
-0.990000 0.130000 0.000000
-0.990000 0.140000 0.000000
-0.990000 0.150000 0.000000
-0.990000 0.160000 0.000000
-0.990000 0.170000 0.000000
-0.990000 0.180000 0.000000
-0.990000 0.190000 0.000000
-0.990000 0.200000 0.000000
-0.990000 0.210000 0.000000
-0.990000 0.220000 0.000000
-0.990000 0.230000 0.000000
-0.990000 0.240000 0.000000
-0.990000 0.250000 0.000000
-0.990000 0.260000 0.000000
-0.990000 0.270000 0.000000
-0.990000 0.280000 0.000000
-0.990000 0.290000 0.000000
-0.990000 0.300000 0.000000
-0.990000 0.310000 0.000000
-0.990000 0.320000 0.000000
-0.990000 0.330000 0.000000
-0.990000 0.340000 0.000000
-0.990000 0.350000 0.000000
-0.990000 0.360000 0.000000
-0.990000 0.370000 0.000000
-0.990000 0.380000 0.000000
-0.990000 0.390000 0.000000
-0.990000 0.400000 0.000000
-0.990000 0.410000 0.000000
-0.990000 0.420000 0.000000
-0.990000 0.430000 0.000000
[...]
POINT_DATA 40401
SCALARS phi FLOAT 1
LOOKUP_TABLE default
0.000000000000
0.000000000000
0.000000000000
0.000000000000
0.000000000000
0.000000000000
0.000000000000
0.000000000000
0.000000000000
0.000000000000
0.000000000000
0.000000000000
0.000000000000
0.000000000000
0.000000000000
0.000000000000
0.000000000000
0.000000000000
0.000000000000
0.000000000000
0.000000000000
0.000000000000
0.000000000000
0.000000000000
0.000000000000
0.000000000000
0.000000000000
0.000000000000
0.000000000000
0.000000000000
0.000000000000
0.000000000000
0.000000000000
0.000000000000
0.000000000000
0.000000000000
0.000000000000
0.000000000000
0.000000000000
0.000000000000
0.000000000000
0.000000000000
0.000000000000
0.000000000000
0.000000000000
0.000000000000
0.000000000000
0.000000000000
0.000000000000
0.000000000000
0.000000000000
0.000000000000
0.000000000000
0.000000000000
0.000000000000
0.000000000000
0.000000000000
0.000000000000
0.000000000000
0.000000000000
0.000000000000
0.000000000000
0.000000000000
0.000000000000
0.000000000000
0.000000000000
0.000000000000
0.000000000000
0.000000000000
0.000000000000
0.000000000000
0.000000000000
0.000000000000
0.000000000000
0.000000000000
0.000000000000
0.000000000000
0.000000000000
0.000000000000
0.000000000000
0.000000000000
0.000000000000
0.000000000000
0.000000000000
0.000000000000
0.000000000000
0.000000000000
0.000000000000
0.000000000000
0.000000000000
0.000000000000
0.000000000000
0.000000000000
0.000000000000
0.000000000000
0.000000000000
0.000000000000
0.000000000000
0.000000000000
0.000000000000
0.000000000000
0.000000000000
0.000000000000
0.000000000000
0.000000000000
0.000000000000
0.000000000000
0.000000000000
0.000000000000
0.000000000000
0.000000000000
0.000000000000
0.000000000000
0.000000000000
0.000000000000
0.000000000000
0.000000000000
0.000000000000
0.000000000000
0.000000000000
0.000000000000
0.000000000000
0.000000000000
0.000000000000
0.000000000000
0.000000000000
0.000000000000
0.000000000000
0.000000000000
0.000000000000
0.000000000000
0.000000000000
0.000000000000
0.000000000000
0.000000000000
0.000000000000
0.000000000000
0.000000000000
0.000000000000
0.000000000000
0.000000000000
0.000000000000
0.000000000000
0.000000000000
0.000000000000
0.000000000000
0.000000000000
0.000000000000
0.000000000000
0.000000000000
0.000000000000
0.000000000000
0.000000000000
0.000000000000
0.000000000000
0.000000000000
0.000000000000
0.000000000000
0.000000000000
0.000000000000
0.000000000000
0.000000000000
0.000000000000
0.000000000000
0.000000000000
0.000000000000
0.000000000000
0.000000000000
0.000000000000
0.000000000000
0.000000000000
0.000000000000
0.000000000000
0.000000000000
0.000000000000
0.000000000000
0.000000000000
0.000000000000
0.000000000000
0.000000000000
0.000000000000
0.000000000000
0.000000000000
0.000000000000
0.000000000000
0.000000000000
0.000000000000
0.000000000000
0.000000000000
0.000000000000
0.000000000000
0.000000000000
0.000000000000
0.000000000000
0.000000000000
0.000000000000
0.000000000000
0.000000000000
0.000000000000
0.000000000000
0.000000000000
0.000000000000
-0.000168171418
-0.000133781319
0.000440702658
0.000332532251
-0.000503153473
-0.000512912769
0.000302697963
0.000464357632
-0.000048876394
-0.000120869119
0.000118610979
-0.000135627225
-0.000463681032
-0.000037535588
0.000631048751
0.000509324203
-0.000165415062
-0.000360896387
0.000037963058
0.000242046465
0.000002029402
-0.000051764486
0.000446647707
0.000965379843
0.000871019084
0.000324731829
-0.000001242057
0.000159943734
0.000415936281
0.000322504590
-0.000052604552
-0.000283385182
-0.000137190803
0.000182173728
0.000308641232
0.000120415156
-0.000174701614
-0.000287598706
-0.000135097586
0.000115778172
0.000232792203
0.000126141451
-0.000093943582
-0.000239241779
-0.000196733869
-0.000012977372
0.000168258773
0.000213860768
0.000102778186
-0.000080011404
-0.000204956296
-0.000194070415
-0.000060019945
0.000107310487
0.000205999206
0.000182160416
0.000055621915
-0.000097619342
-0.000195159906
-0.000188360026
-0.000087987280
0.000053576307
0.000165634233
0.000201251850
0.000147243158
0.000034364056
-0.000090321442
-0.000174523986
-0.000191957800
-0.000137887642
-0.000038977275
0.000071482760
0.000154219572
0.000188491616
0.000164900734
0.000096797996
0.000003577544
-0.000086808186
-0.000153913926
-0.000182341444
-0.000169639261
-0.000121021851
-0.000049550131
0.000029270886
0.000100443502
0.000151993319
0.000177244632
0.000174216842
0.000145836017
0.000098244540
0.000039118744
-0.000022796212
-0.000080704590
-0.000127859774
-0.000161394981
-0.000178405835
-0.000179976167
-0.000166600558
-0.000141571735
-0.000107350223
-0.000067438904
-0.000024869850
0.000017955006
0.000058361498
0.000095418603
0.000127281980
0.000154143334
0.000175147726
0.000190967153
0.000201674172
0.000207893491
0.000210352374
0.000209464757
0.000206150750
0.000200818652
0.000194069244
0.000186637230
0.000178506034
0.000170835505
0.000163150567
0.000156677277
0.000151078667
0.000146990413
0.000144839831
0.000144259095
0.000146509110
0.000150557948
0.000157778942
0.000167448214
0.000180069293
0.000195940288
0.000214429491
0.000236428520
0.000260995830
0.000288308625
0.000318088276
0.000349043962
0.000381313297
0.000412845215
0.000442869022
0.000469646926
0.000490990658
0.000505203404
0.000509974912
0.000502673689
0.000482204635
0.000445810558
0.000393348258
0.000324450035
0.000239834021
0.000142567234
0.000036025832
-0.000074220147
-0.000181478937
-0.000277838537
-0.000356546507
-0.000408086135
-0.000429621828
-0.000414652449
-0.000366771884
-0.000286605189
-0.000186734494
-0.000073788017
0.000033238220
0.000124343133
0.000185772627
0.000209212644
0.000195424504
0.000146036463
0.000077851562
-0.000003880460
-0.000062857517
-0.000120376818
-0.000112337467
-0.000120898066
-0.000045532963
-0.000028449516
0.000049546282
0.000054824190
0.000073400833
0.000051085578
0.000021723703
-0.000009957857
-0.000027934999
-0.000042041906
-0.000023802725
-0.000013306956
0.000005659742
0.000018410115
0.000016955760
0.000010956292
0.000002505466
-0.000007795648
-0.000008796543
-0.000004312850
-0.000002851852
0.000000339219
0.000006701793
0.000001985737
0.000000000000
0.000000000000
-0.000099054713
0.000476291915
0.000351881051
-0.000756901501
-0.000650871906
0.000675426427
0.000769106791
-0.000334350460
-0.000473429818
0.000196033500
0.000004349779
-0.000527670311
0.000076102126
0.000979770340
0.000482119082
-0.000738294373
-0.000769691793
0.000258806665
0.000597196778
-0.000101046420
-0.000414946402
0.000302474299
0.000892972304
0.000314016345
-0.000752622371
-0.000953496068
-0.000169236823
0.000463391353
0.000166626182
-0.000556210203
-0.000724664827
-0.000139116301
0.000486663854
0.000455016485
-0.000143209671
-0.000629580566
-0.000514447574
0.000047026043
0.000490656282
0.000432042756
-0.000024011868
-0.000437003761
-0.000459400395
-0.000099532175
0.000328185918
0.000490082223
0.000285264377
-0.000112990750
-0.000406796989
-0.000403023715
-0.000118480921
0.000239943728
0.000444144259
0.000371078273
0.000083568346
-0.000243964832
-0.000420054415
-0.000359956629
-0.000105502750
0.000198110974
0.000398129644
0.000401376963
0.000218714330
-0.000057358123
-0.000300002023
-0.000409063589
-0.000348324427
-0.000152106542
0.000096472953
0.000303929947
0.000399930569
0.000360010060
0.000205747057
-0.000006910601
-0.000211291086
-0.000349525134
-0.000389198523
-0.000326657241
-0.000185361563
-0.000004091979
0.000172673759
0.000307762369
0.000376107921
0.000370024834
0.000295969181
0.000172574884
0.000024149089
-0.000124069653
-0.000249614230
-0.000337544846
-0.000378161409
-0.000372093849
-0.000322027765
-0.000239827850
-0.000134059405
-0.000020110657
0.000094143994
0.000195986916
0.000281642305
0.000343962601
0.000383327666
0.000398269295
0.000391457846
0.000365708598
0.000323829045
0.000271069772
0.000209019352
0.000143591253
0.000074960495
0.000008184941
-0.000057244204
-0.000118262525
-0.000175026559
-0.000226981627
-0.000273308814
-0.000315588785
-0.000352289595
-0.000385857511
-0.000415092471
-0.000441672672
-0.000465801554
-0.000487374797
-0.000508103538
-0.000526517618
-0.000544570599
-0.000561066735
-0.000576393312
-0.000591040678
-0.000603131221
-0.000614422183
-0.000622094051
-0.000626997114
-0.000627504858
-0.000621899916
-0.000610194971
-0.000589155124
-0.000558442259
-0.000516120623
-0.000459781417
-0.000389880054
-0.000303521105
-0.000201829275
-0.000084806255
0.000046546096
0.000188739038
0.000337934997
0.000489538912
0.000634278198
0.000766925890
0.000875548659
0.000952923623
0.000989091011
0.000978246877
0.000913898559
0.000799092617
0.000633612519
0.000431412261
0.000204224673
-0.000026855079
-0.000240639201
-0.000414113799
-0.000528088654
-0.000571152615
-0.000533330445
-0.000431862589
-0.000269944337
-0.000090171938
0.000092166917
0.000228956842
0.000317380950
0.000317293861
0.000270422954
0.000146156156
0.000033816020
-0.000100945920
-0.000164224947
-0.000191072085
-0.000159849489
-0.000078008918
-0.000004423976
0.000072358591
0.000103185997
0.000093595087
0.000061473032
0.000006351143
-0.000036823079
-0.000049263518
-0.000050840649
-0.000023597260
0.000004287362
0.000020943741
0.000026989335
0.000018238883
0.000000600890
-0.000008102152
-0.000008045970
-0.000012390098
-0.000003583291
0.000008062599
0.000000000000
0.000000000000
0.000196707764
0.000199410376
-0.000524219353
-0.000422673256
0.000654089312
0.000579232868
-0.000564669076
-0.000514275713
0.000467609503
0.000280558322
-0.000556225642
-0.000098275179
0.000867931264
0.000322637361
-0.000913581122
-0.000597208499
0.000781862453
0.000857814637
-0.000459348020
-0.000913644357
0.000243057930
0.001118992607
0.000351357029
-0.000798553810
-0.000516456135
0.000836098132
0.001361731865
0.000357155700
-0.000844844641
-0.000774689132
0.000329502796
0.001017709315
0.000491029095
-0.000563959266
-0.000929102610
-0.000252937819
0.000698411041
0.000956485484
0.000332699185
-0.000516707204
-0.000808046653
-0.000338614786
0.000417955430
0.000811491112
0.000548623763
-0.000112823138
-0.000651218949
-0.000679829121
-0.000220764127
0.000376904460
0.000699234055
0.000552991246
0.000058462725
-0.000460946387
-0.000690488388
-0.000516028797
-0.000053932063
0.000421759930
0.000662598381
0.000550868692
0.000167705251
-0.000292793262
-0.000604006691
-0.000639194402
-0.000392313286
0.000010434849
0.000401105072
0.000621714716
0.000603614165
0.000363816569
0.000004371536
-0.000349479626
-0.000579856322
-0.000626511450
-0.000484308499
-0.000209947689
0.000116142818
0.000401348019
0.000581394253
0.000616344498
0.000513562398
0.000300064345
0.000033784542
-0.000235123671
-0.000449996128
-0.000583381591
-0.000612807897
-0.000547969817
-0.000400328575
-0.000202744192
0.000018684072
0.000230477823
0.000410903646
0.000541053106
0.000612212734
0.000623323298
0.000577315183
0.000485941741
0.000357616067
0.000209266868
0.000048856536
-0.000107777340
-0.000256283500
-0.000385454248
-0.000494729235
-0.000578718791
-0.000638944241
-0.000675558608
-0.000690006063
-0.000686861996
-0.000666093743
-0.000634935707
-0.000591896561
-0.000544562950
-0.000491329992
-0.000437717169
-0.000383803568
-0.000331425552
-0.000283271030
-0.000237675598
-0.000199011836
-0.000164306789
-0.000137144578
-0.000116212398
-0.000102086802
-0.000096622145
-0.000097532373
-0.000108419801
-0.000126915104
-0.000155155269
-0.000193509817
-0.000240952742
-0.000300111294
-0.000368711422
-0.000447804713
-0.000537100314
-0.000633212948
-0.000737630875
-0.000844308238
-0.000952228835
-0.001056343129
-0.001150583476
-0.001230410874
-0.001288239027
-0.001316269186
-0.001310175253
-0.001260072567
-0.001164595212
-0.001019411104
-0.000825357026
-0.000587958869
-0.000315863333
-0.000022024373
0.000273367156
0.000550486648
0.000786141158
0.000954732301
0.001042125902
0.001030356027
0.000921952587
0.000720451069
0.000455226329
0.000146790342
-0.000149034046
-0.000407100852
-0.000576131505
-0.000641799724
-0.000590116200
-0.000442360507
-0.000222676323
0.000008236710
0.000220756598
0.000339942269
0.000389221484
0.000309245892
0.000190323927
0.000016702673
-0.000116787429
-0.000208146872
-0.000211303644
-0.000156853407
-0.000056306083
0.000037325834
0.000104330853
0.000117161486
0.000084328800
0.000026604585
-0.000023951294
-0.000057860467
-0.000055540459
-0.000031561459
0.000000451615
0.000022657867
0.000029671528
0.000015101030
0.000004096612
-0.000004367735
-0.000019212872
-0.000004906055
0.000000000000
0.000000000000
0.000045866751
-0.000076835789
-0.000108094052
0.000171229282
0.000105314168
-0.000321069459
-0.000074816031
0.000555425326
0.000166313201
-0.000706280924
-0.000318746167
0.000723399311
0.000450392133
-0.000599760638
-0.000346446470
0.000768946880
0.000491812179
-0.000996503071
-0.001177229015
0.000454738259
0.001419947895
0.000277683505
-0.001125214234
-0.000660819945
0.000826880360
0.000948040659
-0.000620934116
-0.001744104407
-0.000887813638
0.000862157308
0.001363002197
0.000153137504
-0.001173063830
-0.001043602280
0.000303365333
0.001301808909
0.000899253917
-0.000412616448
-0.001277249788
-0.000911575593
0.000248406095
0.001095267979
0.000925631564
-0.000033052047
-0.000933645314
-0.001071169409
-0.000403908144
0.000515447186
0.001006460449
0.000766918331
0.000006632741
-0.000733845913
-0.000990795157
-0.000629718700
0.000090767058
0.000736523381
0.000943898169
0.000627751592
-0.000017671109
-0.000640161650
-0.000930724894
-0.000766201758
-0.000246828437
0.000371626816
0.000815224632
0.000902647561
0.000621432792
0.000098737239
-0.000448193072
-0.000823050498
-0.000898018477
-0.000671682855
-0.000229608937
0.000270113753
0.000680673500
0.000883090938
0.000841658435
0.000577117291
0.000176831170
-0.000258947090
-0.000623185313
-0.000844930537
-0.000885136673
-0.000750918535
-0.000479013226
-0.000128737536
0.000234507191
0.000552000775
0.000777991561
0.000888566775
0.000876341421
0.000754750133
0.000545323251
0.000281607192
-0.000006562960
-0.000285229168
-0.000532892817
-0.000727089972
-0.000861199218
-0.000926940583
-0.000930378620
-0.000874368426
-0.000771213433
-0.000630173972
-0.000463277787
-0.000282165694
-0.000094506084
0.000088479667
0.000264371271
0.000424398434
0.000569626327
0.000695395235
0.000803251541
0.000893678035
0.000966258782
0.001026234468
0.001070844661
0.001107727471
0.001133784279
0.001155314980
0.001171892261
0.001185386744
0.001199508057
0.001211579417
0.001227530012
0.001243485321
0.001263225456
0.001285826630
0.001309833900
0.001338038745
0.001365258042
0.001394001866
0.001420206264
0.001441425124
0.001457246679
0.001460761286
0.001451860881
0.001424769239
0.001374923352
0.001301093092
0.001195983611
0.001059699714
0.000889697879
0.000684375600
0.000449095531
0.000185909882
-0.000096290102
-0.000384342271
-0.000667588868
-0.000924836890
-0.001139765162
-0.001292634209
-0.001366071785
-0.001345359423
-0.001228187098
-0.001009387270
-0.000709640405
-0.000345875074
0.000043225760
0.000420680330
0.000735546671
0.000957344867
0.001042759902
0.000988996455
0.000797682682
0.000499333681
0.000147675960
-0.000199438026
-0.000476642176
-0.000632542063
-0.000651928739
-0.000514181353
-0.000305492432
-0.000019494560
0.000201471650
0.000363254470
0.000391060351
0.000309227528
0.000155320637
-0.000026892813
-0.000162772722
-0.000218265901
-0.000200651151
-0.000103426223
0.000001027120
0.000084841211
0.000120190776
0.000092622209
0.000042555315
-0.000017151911
-0.000055689003
-0.000053752556
-0.000031968377
-0.000001013213
0.000024762896
0.000021300395
0.000020521281
0.000002096266
-0.000016198908
0.000000000000
0.000000000000
0.000136845884
0.000085403761
-0.000327290554
-0.000259239194
0.000259877740
0.000434793853
0.000143597267
-0.000311423087
-0.000557569029
-0.000113861525
0.000638805351
0.000533510936
-0.000300590643
-0.000406161342
0.000255679195
0.000114071279
-0.000870672662
-0.000793900724
0.000679567970
0.001294391445
-0.000105520906
-0.001453971442
-0.000668544697
0.001038637004
0.001055946101
-0.000611831807
-0.001400397657
-0.000019145490
0.001708148624
0.001426665114
-0.000572832916
-0.001839173854
-0.000922201567
0.000968440799
0.001597051689
0.000333620521
-0.001331217922
-0.001594739922
-0.000251891579
0.001288640809
0.001556322509
0.000398375383
-0.001045168123
-0.001515403367
-0.000695711478
0.000647262890
0.001431984437
0.001112322427
0.000012119378
-0.001033310313
-0.001317419569
-0.000708840290
0.000334487785
0.001139933588
0.001234296729
0.000614665554
-0.000332009718
-0.001061390886
-0.001206999579
-0.000719826831
0.000114985589
0.000882324241
0.001219986326
0.001003777625
0.000351080977
-0.000433469740
-0.001027714551
-0.001201959563
-0.000917406887
-0.000298462195
0.000412815046
0.000973983118
0.001205112692
0.001057292400
0.000592467881
-0.000031265297
-0.000636038795
-0.001058186358
-0.001206206058
-0.001058143495
-0.000670948264
-0.000143096826
0.000402044057
0.000856865960
0.001137980631
0.001210529628
0.001072663625
0.000767837810
0.000348770525
-0.000106897947
-0.000542712941
-0.000893887110
-0.001134793436
-0.001236407619
-0.001209572929
-0.001058938158
-0.000817358964
-0.000508562230
-0.000167830170
0.000176830454
0.000501826649
0.000783884111
0.001016191646
0.001183299435
0.001292687964
0.001336496584
0.001329861697
0.001271448258
0.001176707919
0.001049969800
0.000901588971
0.000740483438
0.000570000853
0.000401426517
0.000232948908
0.000074620875
-0.000076249816
-0.000214578844
-0.000339935910
-0.000453739785
-0.000551550998
-0.000638892454
-0.000710459765
-0.000770467379
-0.000817487521
-0.000849940175
-0.000872039385
-0.000877037057
-0.000870981941
-0.000847675270
-0.000808702267
-0.000753577778
-0.000677592005
-0.000584540473
-0.000469132823
-0.000332918628
-0.000177143438
0.000001384705
0.000195243629
0.000405817572
0.000625971307
0.000848033231
0.001066325394
0.001267288305
0.001439531650
0.001572571917
0.001647461769
0.001658057616
0.001589502639
0.001437509652
0.001201855864
0.000889356862
0.000512469757
0.000101126193
-0.000320874513
-0.000709151931
-0.001027497116
-0.001237696326
-0.001311589719
-0.001229716215
-0.001003737564
-0.000649442634
-0.000218424143
0.000226523985
0.000623277625
0.000895692162
0.001009953247
0.000933323375
0.000697401513
0.000346827279
-0.000048170560
-0.000372569237
-0.000599038622
-0.000633999124
-0.000520879043
-0.000282351221
0.000000945790
0.000233956362
0.000370254317
0.000364391576
0.000244315385
0.000068842524
-0.000095977051
-0.000203649987
-0.000197641395
-0.000136703339
-0.000024157832
0.000068827511
0.000103350014
0.000098888880
0.000041486555
-0.000016462429
-0.000044402190
-0.000053348165
-0.000025577653
0.000003202543
0.000016447913
0.000031044905
0.000002956948
0.000000000000
0.000000000000
0.000104190175
-0.000417261878
-0.000348879184
0.000613319535
0.000603130728
-0.000420943724
-0.000613756744
0.000041775311
0.000304065892
0.000212195212
0.000186733981
-0.000064919967
-0.000366821102
-0.000164562832
0.000071182753
-0.000279373264
-0.000473987662
0.000157677256
0.000531878014
-0.000332437637
-0.001146985282
-0.000297958741
0.001190970545
0.001014221729
-0.000701503246
-0.001413282866
-0.000020924885
0.001430614644
0.000742046810
-0.001245007177
-0.001803229889
-0.000039159714
0.001955692233
0.001801645119
-0.000266328361
-0.001830084661
-0.001180423950
0.000868434969
0.002068090568
0.001208429084
-0.000786995443
-0.001969331793
-0.001310056901
0.000485603275
0.001802115895
0.001582647218
0.000119038129
-0.001370910848
-0.001772687718
-0.000889833191
0.000567229408
0.001570246619
0.001507153640
0.000495220420
-0.000780261952
-0.001551892392
-0.001417258102
-0.000507230513
0.000640279278
0.001425563012
0.001471196763
0.000805884120
-0.000229102054
-0.001135422228
-0.001533468163
-0.001270277447
-0.000498205995
0.000462839473
0.001226139204
0.001531900015
0.001285244169
0.000609126803
-0.000261123195
-0.001031229860
-0.001482059408
-0.001491162213
-0.001090317059
-0.000400379948
0.000374453594
0.001051262041
0.001465445863
0.001554414138
0.001306304104
0.000807094477
0.000156193848
-0.000504552875
-0.001070812347