# vtk DataFile Version 2.0
TITLE = "Quad data"
ASCII
DATASET STRUCTURED_GRID
DIMENSIONS 33 33 1
POINTS 1089 FLOAT
0.000000 0.000000 0.000000
0.000000 0.031250 0.000000
0.000000 0.062500 0.000000
0.000000 0.093750 0.000000
0.000000 0.125000 0.000000
0.000000 0.156250 0.000000
0.000000 0.187500 0.000000
0.000000 0.218750 0.000000
0.000000 0.250000 0.000000
0.000000 0.281250 0.000000
0.000000 0.312500 0.000000
0.000000 0.343750 0.000000
0.000000 0.375000 0.000000
0.000000 0.406250 0.000000
0.000000 0.437500 0.000000
0.000000 0.468750 0.000000
0.000000 0.500000 0.000000
0.000000 0.531250 0.000000
0.000000 0.562500 0.000000
0.000000 0.593750 0.000000
0.000000 0.625000 0.000000
0.000000 0.656250 0.000000
0.000000 0.687500 0.000000
0.000000 0.718750 0.000000
0.000000 0.750000 0.000000
0.000000 0.781250 0.000000
0.000000 0.812500 0.000000
0.000000 0.843750 0.000000
0.000000 0.875000 0.000000
0.000000 0.906250 0.000000
0.000000 0.937500 0.000000
0.000000 0.968750 0.000000
0.000000 1.000000 0.000000
0.031250 0.000000 0.000000
0.031250 0.031250 0.000000
0.031250 0.062500 0.000000
0.031250 0.093750 0.000000
0.031250 0.125000 0.000000
0.031250 0.156250 0.000000
0.031250 0.187500 0.000000
0.031250 0.218750 0.000000
0.031250 0.250000 0.000000
0.031250 0.281250 0.000000
0.031250 0.312500 0.000000
0.031250 0.343750 0.000000
0.031250 0.375000 0.000000
0.031250 0.406250 0.000000
0.031250 0.437500 0.000000
0.031250 0.468750 0.000000
0.031250 0.500000 0.000000
0.031250 0.531250 0.000000
0.031250 0.562500 0.000000
0.031250 0.593750 0.000000
0.031250 0.625000 0.000000
0.031250 0.656250 0.000000
0.031250 0.687500 0.000000
0.031250 0.718750 0.000000
0.031250 0.750000 0.000000
0.031250 0.781250 0.000000
0.031250 0.812500 0.000000
0.031250 0.843750 0.000000
0.031250 0.875000 0.000000
0.031250 0.906250 0.000000
0.031250 0.937500 0.000000
0.031250 0.968750 0.000000
0.031250 1.000000 0.000000
0.062500 0.000000 0.000000
0.062500 0.031250 0.000000
0.062500 0.062500 0.000000
0.062500 0.093750 0.000000
0.062500 0.125000 0.000000
0.062500 0.156250 0.000000
0.062500 0.187500 0.000000
0.062500 0.218750 0.000000
0.062500 0.250000 0.000000
0.062500 0.281250 0.000000
0.062500 0.312500 0.000000
0.062500 0.343750 0.000000
0.062500 0.375000 0.000000
0.062500 0.406250 0.000000
0.062500 0.437500 0.000000
0.062500 0.468750 0.000000
0.062500 0.500000 0.000000
0.062500 0.531250 0.000000
0.062500 0.562500 0.000000
0.062500 0.593750 0.000000
0.062500 0.625000 0.000000
0.062500 0.656250 0.000000
0.062500 0.687500 0.000000
0.062500 0.718750 0.000000
0.062500 0.750000 0.000000
0.062500 0.781250 0.000000
0.062500 0.812500 0.000000
0.062500 0.843750 0.000000
0.062500 0.875000 0.000000
0.062500 0.906250 0.000000
0.062500 0.937500 0.000000
0.062500 0.968750 0.000000
0.062500 1.000000 0.000000
0.093750 0.000000 0.000000
0.093750 0.031250 0.000000
0.093750 0.062500 0.000000
0.093750 0.093750 0.000000
0.093750 0.125000 0.000000
0.093750 0.156250 0.000000
0.093750 0.187500 0.000000
0.093750 0.218750 0.000000
0.093750 0.250000 0.000000
0.093750 0.281250 0.000000
0.093750 0.312500 0.000000
0.093750 0.343750 0.000000
0.093750 0.375000 0.000000
0.093750 0.406250 0.000000
0.093750 0.437500 0.000000
0.093750 0.468750 0.000000
0.093750 0.500000 0.000000
0.093750 0.531250 0.000000
0.093750 0.562500 0.000000
0.093750 0.593750 0.000000
0.093750 0.625000 0.000000
0.093750 0.656250 0.000000
0.093750 0.687500 0.000000
0.093750 0.718750 0.000000
0.093750 0.750000 0.000000
0.093750 0.781250 0.000000
0.093750 0.812500 0.000000
0.093750 0.843750 0.000000
0.093750 0.875000 0.000000
0.093750 0.906250 0.000000
0.093750 0.937500 0.000000
0.093750 0.968750 0.000000
0.093750 1.000000 0.000000
0.125000 0.000000 0.000000
0.125000 0.031250 0.000000
0.125000 0.062500 0.000000
0.125000 0.093750 0.000000
0.125000 0.125000 0.000000
0.125000 0.156250 0.000000
0.125000 0.187500 0.000000
0.125000 0.218750 0.000000
0.125000 0.250000 0.000000
0.125000 0.281250 0.000000
0.125000 0.312500 0.000000
0.125000 0.343750 0.000000
0.125000 0.375000 0.000000
0.125000 0.406250 0.000000
0.125000 0.437500 0.000000
0.125000 0.468750 0.000000
0.125000 0.500000 0.000000
0.125000 0.531250 0.000000
0.125000 0.562500 0.000000
0.125000 0.593750 0.000000
0.125000 0.625000 0.000000
0.125000 0.656250 0.000000
0.125000 0.687500 0.000000
0.125000 0.718750 0.000000
0.125000 0.750000 0.000000
0.125000 0.781250 0.000000
0.125000 0.812500 0.000000
0.125000 0.843750 0.000000
0.125000 0.875000 0.000000
0.125000 0.906250 0.000000
0.125000 0.937500 0.000000
0.125000 0.968750 0.000000
0.125000 1.000000 0.000000
0.156250 0.000000 0.000000
0.156250 0.031250 0.000000
0.156250 0.062500 0.000000
0.156250 0.093750 0.000000
0.156250 0.125000 0.000000
0.156250 0.156250 0.000000
0.156250 0.187500 0.000000
0.156250 0.218750 0.000000
0.156250 0.250000 0.000000
0.156250 0.281250 0.000000
0.156250 0.312500 0.000000
0.156250 0.343750 0.000000
0.156250 0.375000 0.000000
0.156250 0.406250 0.000000
0.156250 0.437500 0.000000
0.156250 0.468750 0.000000
0.156250 0.500000 0.000000
0.156250 0.531250 0.000000
0.156250 0.562500 0.000000
0.156250 0.593750 0.000000
0.156250 0.625000 0.000000
0.156250 0.656250 0.000000
0.156250 0.687500 0.000000
0.156250 0.718750 0.000000
0.156250 0.750000 0.000000
0.156250 0.781250 0.000000
0.156250 0.812500 0.000000
0.156250 0.843750 0.000000
0.156250 0.875000 0.000000
0.156250 0.906250 0.000000
0.156250 0.937500 0.000000
0.156250 0.968750 0.000000
0.156250 1.000000 0.000000
0.187500 0.000000 0.000000
0.187500 0.031250 0.000000
0.187500 0.062500 0.000000
0.187500 0.093750 0.000000
0.187500 0.125000 0.000000
0.187500 0.156250 0.000000
0.187500 0.187500 0.000000
0.187500 0.218750 0.000000
0.187500 0.250000 0.000000
0.187500 0.281250 0.000000
0.187500 0.312500 0.000000
0.187500 0.343750 0.000000
0.187500 0.375000 0.000000
0.187500 0.406250 0.000000
0.187500 0.437500 0.000000
0.187500 0.468750 0.000000
0.187500 0.500000 0.000000
0.187500 0.531250 0.000000
0.187500 0.562500 0.000000
0.187500 0.593750 0.000000
0.187500 0.625000 0.000000
0.187500 0.656250 0.000000
0.187500 0.687500 0.000000
0.187500 0.718750 0.000000
0.187500 0.750000 0.000000
0.187500 0.781250 0.000000
0.187500 0.812500 0.000000
0.187500 0.843750 0.000000
0.187500 0.875000 0.000000
0.187500 0.906250 0.000000
0.187500 0.937500 0.000000
0.187500 0.968750 0.000000
0.187500 1.000000 0.000000
0.218750 0.000000 0.000000
0.218750 0.031250 0.000000
0.218750 0.062500 0.000000
0.218750 0.093750 0.000000
0.218750 0.125000 0.000000
0.218750 0.156250 0.000000
0.218750 0.187500 0.000000
0.218750 0.218750 0.000000
0.218750 0.250000 0.000000
0.218750 0.281250 0.000000
0.218750 0.312500 0.000000
0.218750 0.343750 0.000000
0.218750 0.375000 0.000000
0.218750 0.406250 0.000000
0.218750 0.437500 0.000000
0.218750 0.468750 0.000000
0.218750 0.500000 0.000000
0.218750 0.531250 0.000000
0.218750 0.562500 0.000000
0.218750 0.593750 0.000000
0.218750 0.625000 0.000000
0.218750 0.656250 0.000000
0.218750 0.687500 0.000000
0.218750 0.718750 0.000000
0.218750 0.750000 0.000000
0.218750 0.781250 0.000000
0.218750 0.812500 0.000000
0.218750 0.843750 0.000000
0.218750 0.875000 0.000000
0.218750 0.906250 0.000000
0.218750 0.937500 0.000000
0.218750 0.968750 0.000000
0.218750 1.000000 0.000000
0.250000 0.000000 0.000000
0.250000 0.031250 0.000000
0.250000 0.062500 0.000000
0.250000 0.093750 0.000000
0.250000 0.125000 0.000000
0.250000 0.156250 0.000000
0.250000 0.187500 0.000000
0.250000 0.218750 0.000000
0.250000 0.250000 0.000000
0.250000 0.281250 0.000000
0.250000 0.312500 0.000000
0.250000 0.343750 0.000000
0.250000 0.375000 0.000000
0.250000 0.406250 0.000000
0.250000 0.437500 0.000000
0.250000 0.468750 0.000000
0.250000 0.500000 0.000000
0.250000 0.531250 0.000000
0.250000 0.562500 0.000000
0.250000 0.593750 0.000000
0.250000 0.625000 0.000000
0.250000 0.656250 0.000000
0.250000 0.687500 0.000000
0.250000 0.718750 0.000000
0.250000 0.750000 0.000000
0.250000 0.781250 0.000000
0.250000 0.812500 0.000000
0.250000 0.843750 0.000000
0.250000 0.875000 0.000000
0.250000 0.906250 0.000000
0.250000 0.937500 0.000000
0.250000 0.968750 0.000000
0.250000 1.000000 0.000000
0.281250 0.000000 0.000000
0.281250 0.031250 0.000000
0.281250 0.062500 0.000000
0.281250 0.093750 0.000000
0.281250 0.125000 0.000000
0.281250 0.156250 0.000000
0.281250 0.187500 0.000000
0.281250 0.218750 0.000000
0.281250 0.250000 0.000000
0.281250 0.281250 0.000000
0.281250 0.312500 0.000000
0.281250 0.343750 0.000000
0.281250 0.375000 0.000000
0.281250 0.406250 0.000000
0.281250 0.437500 0.000000
0.281250 0.468750 0.000000
0.281250 0.500000 0.000000
0.281250 0.531250 0.000000
0.281250 0.562500 0.000000
0.281250 0.593750 0.000000
0.281250 0.625000 0.000000
0.281250 0.656250 0.000000
0.281250 0.687500 0.000000
0.281250 0.718750 0.000000
0.281250 0.750000 0.000000
0.281250 0.781250 0.000000
0.281250 0.812500 0.000000
0.281250 0.843750 0.000000
0.281250 0.875000 0.000000
0.281250 0.906250 0.000000
0.281250 0.937500 0.000000
0.281250 0.968750 0.000000
0.281250 1.000000 0.000000
0.312500 0.000000 0.000000
0.312500 0.031250 0.000000
0.312500 0.062500 0.000000
0.312500 0.093750 0.000000
0.312500 0.125000 0.000000
0.312500 0.156250 0.000000
0.312500 0.187500 0.000000
0.312500 0.218750 0.000000
0.312500 0.250000 0.000000
0.312500 0.281250 0.000000
0.312500 0.312500 0.000000
0.312500 0.343750 0.000000
0.312500 0.375000 0.000000
0.312500 0.406250 0.000000
0.312500 0.437500 0.000000
0.312500 0.468750 0.000000
0.312500 0.500000 0.000000
0.312500 0.531250 0.000000
0.312500 0.562500 0.000000
0.312500 0.593750 0.000000
0.312500 0.625000 0.000000
0.312500 0.656250 0.000000
0.312500 0.687500 0.000000
0.312500 0.718750 0.000000
0.312500 0.750000 0.000000
0.312500 0.781250 0.000000
0.312500 0.812500 0.000000
0.312500 0.843750 0.000000
0.312500 0.875000 0.000000
0.312500 0.906250 0.000000
0.312500 0.937500 0.000000
0.312500 0.968750 0.000000
0.312500 1.000000 0.000000
0.343750 0.000000 0.000000
0.343750 0.031250 0.000000
0.343750 0.062500 0.000000
[...]
POINT_DATA 1089
SCALARS phi FLOAT 1
LOOKUP_TABLE default
0.000000000000
0.000000953674
0.000015258789
0.000077247620
0.000244140625
0.000596046448
0.001235961914
0.002289772034
0.003906250000
0.006257057190
0.009536743164
0.013962745667
0.019775390625
0.027237892151
0.036636352539
0.048279762268
0.062500000000
0.079651832581
0.100112915039
0.124283790588
0.152587890625
0.185471534729
0.223403930664
0.266877174377
0.316406250000
0.372529029846
0.435806274414
0.506821632385
0.586181640625
0.674515724182
0.772476196289
0.880738258362
1.000000000000
0.000000953674
0.000004911108
0.000008858870
0.000047873574
0.000179520695
0.000484093506
0.001064699085
0.002047293619
0.003580698801
0.005836610280
0.009009602421
0.013317131165
0.018999535828
0.026320040294
0.035564753796
0.047042671443
0.061085674553
0.078048530836
0.098308894456
0.122267305970
0.150347192143
0.182994865616
0.220679524381
0.263893250995
0.313151011392
0.368990653084
0.431972902295
0.502681359208
0.581722489510
0.669725608000
0.767342843280
0.875249051751
0.994141578674
0.000015258789
0.000008858870
-0.000032646497
-0.000074190182
-0.000058100455
0.000096014759
0.000491337649
0.001253879350
0.002532501744
0.004498930139
0.007347760972
0.011296466679
0.016585398884
0.023477790530
0.032259757330
0.043240298736
0.056751298562
0.073147525334
0.092806632400
0.116129157819
0.143538524013
0.175481037143
0.212425886140
0.254865141255
0.303313751927
0.358309543592
0.420413212818
0.490208319599
0.568301274674
0.655321317732
0.751920478573
0.858773507343
0.976577758789
0.000077247620
0.000047873574
-0.000074190182
-0.000254001383
-0.000433897422
-0.000533456843
-0.000449460846
-0.000055864824
0.000796220910
0.002278543894
0.004585718016
0.007935229245
0.012567439564
0.018745589690
0.026755800968
0.036907076660
0.049531302784
0.064983248588
0.083640566697
0.105903792966
0.132196346006
0.162964526346
0.198677515142
0.239827372286
0.286929033682
0.340520307318
0.401161867530
0.469437246508
0.545952821520
0.631337795643
0.726244169297
0.831346701752
0.947342872620
0.000244140625
0.000179520695
-0.000058100455
-0.000433897422
-0.000890254691
-0.001346759403
-0.001700184105
-0.001824469523
-0.001570710491
-0.000767145328
0.000780851942
0.003290777219
0.007003000407
0.012180768343
0.019110206898
0.028100322439
0.039483002800
0.053613017822
0.070868019535
0.091648541980
0.116378000661
0.145502691580
0.179491789773
0.218837347211
0.264054289867
0.315680413641
0.374276378726
0.440425701833
0.514734745562
0.597832704340
0.690371587182
0.793026200452
0.906494140625
0.000596046448
0.000484093506
0.000096014759
-0.000533456843
-0.001346759403
-0.002263505216
-0.003180474756
-0.003971607519
-0.004487992901
-0.004557862318
-0.003986582852
-0.002556652306
-0.000027695419
0.003863538978
0.009403180064
0.016900236526
0.026686597569
0.039117033487
0.054569195858
0.073443617348
0.096163711143
0.123175769936
0.154948964431
0.191975341240
0.234769820040
0.283870189789
0.339837103777
0.403254073276
0.474727459659
0.554886465277
0.644383124303
0.743892296717
0.854111671448
0.001235961914
0.001064699085
0.000491337649
-0.000449460846
-0.001700184105
-0.003180474756
-0.004787129532
-0.006394095067
-0.007852462469
-0.008990461939
-0.009613457966
-0.009503945303
-0.008421545717
-0.006103005420
-0.002262193127
0.003409901383
0.011245168239
0.021598378047
0.034847182072
0.051392112056
0.071656579651
0.096086875442
0.125152167515
0.159344499509
0.199178788051
0.245192819506
0.297947245948
0.358025580364
0.426034191263
0.502602297256
0.588381962848
0.684048097624
0.790298461914
0.002289772034
0.002047293619
0.001253879350
-0.000055864824
-0.001824469523
-0.003971607519
-0.006394095067
-0.008965890443
-0.011538091012
-0.013938929773
-0.015973771938
-0.017425111838
-0.018052570277
-0.017592892356
-0.015759945755
-0.012244719437
-0.006715322761
0.001183015054
0.011827945098
0.025619998599
0.042982586393
0.064361998031
0.090227400486
0.121070836434
0.157407222082
0.199774344515
0.248732858607
0.304866283600
0.368780999647
0.441106244881
0.522494113952
0.613619559360
0.715180397034
0.003906250000
0.003580698801
0.002532501744
0.000796220910
-0.001570710491
-0.004487992901
-0.007852462469
-0.011538091012
-0.015395984637
-0.019254381667
-0.022918650316
-0.026171286425
-0.028771911391
-0.030457270402
-0.030941230989
-0.029914781905
-0.027046032344
-0.021980211463
-0.014339668235
-0.003723871597
0.010290589077
0.028150003188
0.050323537795
0.077303236170
0.109604016025
0.147763667450
0.192342850642
0.243925093587
0.303116789977
0.370547197840
0.446868439497
0.532755503617
0.628906250000
0.006257057190
0.005836610280
0.004498930139
0.002278543894
-0.000767145328
-0.004557862318
-0.008990461939
-0.013938929773
-0.019254381667
-0.024765062586
-0.030276345121
-0.035570727877
-0.040407833927
-0.044524409417
-0.047634322391
-0.049428561855
-0.049575237108
-0.047719577339
-0.043483931489
-0.036467768390
-0.026247677165
-0.012377367900
0.005612327423
0.028213453749
0.055940931557
0.089332555312
0.128948991855
0.175373778909
0.229213323934
0.291096903671
0.361676664791
0.441627626046
0.531647682190
0.009536743164
0.009009602421
0.007347760972
0.004585718016
0.000780851942
-0.003986582852
-0.009613457966
-0.015973771938
-0.022918650316
-0.030276345121
-0.037852233932
-0.045428818795
-0.052765725096
-0.059599700487
-0.065644613962
-0.070591455091
-0.074108333469
-0.075840478377
-0.075410238664
-0.072417082867
-0.066437599545
-0.057025497836
-0.043711608212
-0.026003883420
-0.003387399538
0.024675642888
0.058745917754
0.099406972483
0.147265227492
0.202949976261
0.267113386269
0.340430501011
0.423599243164
0.013962745667
0.013317131165
0.011296466679
0.007935229245
0.003290777219
-0.002556652306
-0.009503945303
-0.017425111838
-0.026171286425
-0.035570727877
-0.045428818795
-0.055528064856
-0.065628094005
-0.075465655662
-0.084754619993
-0.093185977304
-0.100427837593
-0.106125430268
-0.109901104052
-0.111354327079
-0.110061687172
-0.105576892295
-0.097430771158
-0.085131273942
-0.068163473099
-0.045989564153
-0.018048866416
0.016242176506
0.057489996553
0.106323901579
0.163396076370
0.229381584451
0.304978370667
0.019775390625
0.018999535828
0.016585398884
0.012567439564
0.007003000407
-0.000027695419
-0.008421545717
-0.018052570277
-0.028771911391
-0.040407833927
-0.052765725096
-0.065628094005
-0.078754571100
-0.091881907572
-0.104723974800
-0.116971763872
-0.128293385220
-0.138334068391
-0.146716161969
-0.153039133654
-0.156879570489
-0.157791179224
-0.155304786797
-0.148928340891
-0.138146910526
-0.122422686616
-0.101194982418
-0.073880233763
-0.039871998981
0.001459041607
0.050765086715
0.108721215684
0.176025390625
0.027237892151
0.026320040294
0.023477790530
0.018745589690
0.012180768343
0.003863538978
-0.006103005420
-0.017592892356
-0.030457270402
-0.044524409417
-0.059599700487
-0.075465655662
-0.091881907572
-0.108585208987
-0.125289432389
-0.141685569584
-0.157441731406
-0.172203147534
-0.185592166421
-0.197208255365
-0.206628000688
-0.213405108042
-0.217070402785
-0.217131830414
-0.213074457006
-0.204360469603
-0.190429176468
-0.170697007152
-0.144557512273
-0.111381362937
-0.070516349752
-0.021287381406
0.037003517151
0.036636352539
0.035564753796
0.032259757330
0.026755800968
0.019110206898
0.009403180064
-0.002262193127
-0.015759945755
-0.030941230989
-0.047634322391
-0.065644613962
-0.084754619993
-0.104723974800
-0.125289432389
-0.146164866111
-0.167041268343
-0.187586750246
-0.207446541601
-0.226242990759
-0.243575564692
-0.259020849150
-0.272132548917
-0.282441488114
-0.289455610553
-0.292659980070
-0.291516780791
-0.285465317279
-0.273922014485
-0.256280417453
-0.231911190710
-0.200162117318
-0.160358097587
-0.111801147461
0.048279762268
0.047042671443
0.043240298736
0.036907076660
0.028100322439
0.016900236526
0.003409901383
-0.012244719437
-0.029914781905
-0.049428561855
-0.070591455091
-0.093185977304
-0.116971763872
-0.141685569584
-0.167041268343
-0.192729852896
-0.218419434612
-0.243755243339
-0.268359627361
-0.291832053441
-0.313749106963
-0.333664492154
-0.351109032355
-0.365590670316
-0.376594468473
-0.383582609148
-0.385994394631
-0.383246247074
-0.374731708152
-0.359821438447
-0.337863216533
-0.308181937750
-0.270079612732
0.062500000000
0.061085674553
0.056751298562
0.049531302784
0.039483002800
0.026686597569
0.011245168239
-0.006715322761
-0.027046032344
-0.049575237108
-0.074108333469
-0.100427837593
-0.128293385220
-0.157441731406
-0.187586750246
-0.218419434612
-0.249607895944
-0.280797364117
-0.311610187388
-0.341645832449
-0.370480884558
-0.397669047752
-0.422741145104
-0.445205119003
-0.464546031407
-0.480226064031
-0.491684518396
-0.498337815715
-0.499579496538
-0.494780220133
-0.483287763580
-0.464427020577
-0.437500000000
0.079651832581
0.078048530836
0.073147525334
0.064983248588
0.053613017822
0.039117033487
0.021598378047
0.001183015054
-0.021980211463
-0.047719577339
-0.075840478377
-0.106125430268
-0.138334068391
-0.172203147534
-0.207446541601
-0.243755243339
-0.280797364117
-0.318218133783
-0.355639900620
-0.392662131391
-0.428861411482
-0.463791445118
-0.496983055641
-0.527944185800
-0.556159898032
-0.581092374658
-0.602180917967
-0.618841950113
-0.630469012769
-0.636432766519
-0.636080989934
-0.628738578357
-0.613707542419
0.100112915039
0.098308894456
0.092806632400
0.083640566697
0.070868019535
0.054569195858
0.034847182072
0.011827945098
-0.014339668235
-0.043483931489
-0.075410238664
-0.109901104052
-0.146716161969
-0.185592166421
-0.226242990759
-0.268359627361
-0.311610187388
-0.355639900620
-0.400071115408
-0.444503298724
-0.488513036319
-0.531654032976
-0.573457112816
-0.613430219651
-0.651058417317
-0.685803889939
-0.717105942080
-0.744380998691
-0.767022604816
-0.784401424981
-0.795865242249
-0.800738956927
-0.798324584961
0.124283790588
0.122267305970
0.116129157819
0.105903792966
0.091648541980
0.073443617348
0.051392112056
0.025619998599
-0.003723871597
-0.036467768390
-0.072417082867
-0.111354327079
-0.153039133654
-0.197208255365
-0.243575564692
-0.291832053441
-0.341645832449
-0.392662131391
-0.444503298724
-0.496768801742
-0.549035226770
-0.600856279459
-0.651762785165
-0.701262689387
-0.748841058201
-0.793960078648
-0.836059058991
-0.874554428782
-0.908839738637
-0.938285659661
-0.962239982463
-0.980027615730
-0.990950584412
0.152587890625
0.150347192143
0.143538524013
0.132196346006
0.116378000661
0.096163711143
0.071656579651
0.042982586393
0.010290589077
-0.026247677165
-0.066437599545
-0.110061687172
-0.156879570489
-0.206628000688
-0.259020849150
-0.313749106963
-0.370480884558
-0.428861411482
-0.488513036319
-0.549035226770
-0.610004569877
-0.670974772390
-0.731476661246
-0.791018184129
-0.849084410058
-0.905137529946
-0.958616857050
-1.008938827200
-1.055496998728
-1.097662051951
-1.134781788156
-1.166181128001
-1.191162109375
0.185471534729
0.182994865616
0.175481037143
0.162964526346
0.145502691580
0.123175769936
0.096086875442
0.064361998031
0.028150003188
-0.012377367900
-0.057025497836
-0.105576892295
-0.157791179224
-0.213405108042
-0.272132548917
-0.333664492154
-0.397669047752
-0.463791445118
-0.531654032976
-0.600856279459
-0.670974772390
-0.741563219733
-0.812152450198
-0.882250413965
-0.951342183486
-1.018889954284
-1.084333045671
-1.147087901252
-1.206548089086
-1.262084301320
-1.313044353166
-1.358753181098
-1.398512840271
0.223403930664
0.220679524381
0.212425886140
0.198677515142
0.179491789773
0.154948964431
0.125152167515
0.090227400486
0.050323537795
0.005612327423
-0.043711608212
-0.097430771158
-0.155304786797
-0.217070402785
-0.282441488114
-0.351109032355
-0.422741145104
-0.496983055641
-0.573457112816
-0.651762785165
-0.731476661246
-0.812152450198
-0.893320982493
-0.974490210876
-1.055145211426
-1.134748184688
-1.212738456766
-1.288532480234
-1.361523834677
-1.431083226613
-1.496558488562
-1.557274577029
-1.612533569336
0.266877174377
0.263893250995
0.254865141255
0.239827372286
0.218837347211
0.191975341240
0.159344499509
0.121070836434
0.077303236170
0.028213453749
-0.026003883420
-0.085131273942
-0.148928340891
-0.217131830414
-0.289455610553
-0.365590670316
-0.445205119003
-0.527944185800
-0.613430219651
-0.701262689387
-0.791018184129
-0.882250413965
-0.974490210876
-1.067245529917
-1.160001450606
-1.252220178481
-1.343341046698
-1.432780517533
-1.519932183527
-1.604166767937
-1.684832124093
-1.761253233239
-1.832732200623
0.316406250000
0.313151011392
0.303313751927
0.286929033682
0.264054289867
0.234769820040
0.199178788051
0.157407222082
0.109604016025
0.055940931557
-0.003387399538
-0.068163473099
-0.138146910526
-0.213074457006
-0.292659980070
-0.376594468473
-0.464546031407
-0.556159898032
-0.651058417317
-0.748841058201
-0.849084410058
-0.951342183486
-1.055145211426
-1.160001450606
-1.265395983313
-1.370791019456
-1.475625898838
-1.579317093472
-1.681258209665
-1.780819989388
-1.877350310320
-1.970174183791
-2.058593750000
0.372529029846
0.368990653084
0.358309543592
0.340520307318
0.315680413641
0.283870189789
0.245192819506
0.199774344515
0.147763667450
0.089332555312
0.024675642888
-0.045989564153
-0.122422686616
-0.204360469603
-0.291516780791
-0.383582609148
-0.480226064031
-0.581092374658
-0.685803889939
-0.793960078648
-0.905137529946
-1.018889954284
-1.134748184688
-1.252220178481
-1.370791019456
-1.489922920528
-1.609055226821
-1.727604419092
-1.844964117189
-1.960505082977
-2.073575221806
-2.183499581175
-2.289580345154
0.435806274414
0.431972902295
0.420413212818
0.401161867530
0.374276378726
0.339837103777
0.297947245948
0.248732858607
0.192342850642
0.128948991855
0.058745917754
-0.018048866416
-0.101194982418
-0.190429176468
-0.285465317279
-0.385994394631
-0.491684518396
-0.602180917967
-0.717105942080
-0.836059058991
-0.958616857050
-1.084333045671
-1.212738456766
-1.343341046698
-1.475625898838
-1.609055226821
-1.743068378571
-1.877081841103
-2.010489245906
-2.142661374368
-2.272946161983
-2.400668699166
-2.525131225586
0.506821632385
0.502681359208
0.490208319599
0.469437246508
0.440425701833
0.403254073276
0.358025580364
0.304866283600
0.243925093587
0.175373778909
0.099406972483
0.016242176506
-0.073880233763
-0.170697007152
-0.273922014485
-0.383246247074
-0.498337815715
-0.618841950113
-0.744380998691
-0.874554428782
-1.008938827200
-1.147087901252
-1.288532480234
-1.432780517533
-1.579317093472
-1.727604419092
-1.877081841103
-2.027165848232
-2.177250079105
-2.326705331372
-2.474879570857
-2.621097937581
-2.764662742615
0.586181640625
0.581722489510
0.568301274674
0.545952821520
0.514734745562
0.474727459659
0.426034191263
0.368780999647
0.303116789977
0.229213323934
0.147265227492
0.057489996553
-0.039871998981
-0.144557512273
-0.256280417453
-0.374731708152
-0.499579496538
-0.630469012769
-0.767022604816
-0.908839738637
-1.055496998728
-1.206548089086
-1.361523834677
-1.519932183527
-1.681258209665
-1.844964117189
-2.010489245906
-2.177250079105
-2.344640254184
-2.512030576718
-2.678769037688
-2.844180830733
-3.007568359375
0.674515724182
0.669725608000
0.655321317732
0.631337795643
0.597832704340
0.554886465277
0.502602297256
0.441106244881
0.370547197840
0.291096903671
0.202949976261
0.106323901579
0.001459041607
-0.111381362937
-0.231911190710
-0.359821438447
-0.494780220133
-0.636432766519
-0.784401424981
-0.938285659661
-1.097662051951
-1.262084301320
-1.431083226613
-1.604166767937
-1.780819989388
-1.960505082977
-2.142661374368
-2.326705331372
-2.512030576718
-2.698007907331
-2.883985322789
-3.069288063822
-3.253218650818
0.772476196289
0.767342843280
0.751920478573
0.726244169297
0.690371587182
0.644383124303
0.588381962848
0.522494113952
0.446868439497
0.361676664791
0.267113386269
0.163396076370
0.050765086715
-0.070516349752
-0.200162117318
-0.337863216533
-0.483287763580
-0.636080989934
-0.795865242249
-0.962239982463
-1.134781788156
-1.313044353166
-1.496558488562
-1.684832124093
-1.877350310320
-2.073575221806
-2.272946161983
-2.474879570857
-2.678769037688
-2.883985322789
-3.089876396357
-3.295767508247
-3.500961303711
0.880738258362
0.875249051751
0.858773507343
0.831346701752
0.793026200452
0.743892296717
0.684048097624
0.613619559360
0.532755503617
0.441627626046
0.340430501011
0.229381584451
0.108721215684
-0.021287381406
-0.160358097587
-0.308181937750
-0.464427020577
-0.628738578357
-0.800738956927
-0.980027615730
-1.166181128001
-1.358753181098
-1.557274577029
-1.761253233239
-1.970174183791
-2.183499581175
-2.400668699166
-2.621097937581
-2.844180830733
-3.069288063822
-3.295767508247
-3.522944307606
-3.750121116638
1.000000000000
0.994141578674
0.976577758789
0.947342872620
0.906494140625
0.854111671448
0.790298461914
0.715180397034
0.628906250000
0.531647682190
0.423599243164
0.304978370667
0.176025390625
0.037003517151
-0.111801147461
-0.270079612732
-0.437500000000
-0.613707542419
-0.798324584961
-0.990950584412
-1.191162109375
-1.398512840271
-1.612533569336
-1.832732200623
-2.058593750000
-2.289580345154
-2.525131225586
-2.764662742615
-3.007568359375
-3.253218650818
-3.500961303711
-3.750121116638
-4.000000000000
