# vtk DataFile Version 2.0
TITLE = "Quad data"
ASCII
DATASET STRUCTURED_GRID
DIMENSIONS 65 65 1
POINTS 4225 FLOAT
0.000000 0.000000 0.000000
0.000000 0.015625 0.000000
0.000000 0.031250 0.000000
0.000000 0.046875 0.000000
0.000000 0.062500 0.000000
0.000000 0.078125 0.000000
0.000000 0.093750 0.000000
0.000000 0.109375 0.000000
0.000000 0.125000 0.000000
0.000000 0.140625 0.000000
0.000000 0.156250 0.000000
0.000000 0.171875 0.000000
0.000000 0.187500 0.000000
0.000000 0.203125 0.000000
0.000000 0.218750 0.000000
0.000000 0.234375 0.000000
0.000000 0.250000 0.000000
0.000000 0.265625 0.000000
0.000000 0.281250 0.000000
0.000000 0.296875 0.000000
0.000000 0.312500 0.000000
0.000000 0.328125 0.000000
0.000000 0.343750 0.000000
0.000000 0.359375 0.000000
0.000000 0.375000 0.000000
0.000000 0.390625 0.000000
0.000000 0.406250 0.000000
0.000000 0.421875 0.000000
0.000000 0.437500 0.000000
0.000000 0.453125 0.000000
0.000000 0.468750 0.000000
0.000000 0.484375 0.000000
0.000000 0.500000 0.000000
0.000000 0.515625 0.000000
0.000000 0.531250 0.000000
0.000000 0.546875 0.000000
0.000000 0.562500 0.000000
0.000000 0.578125 0.000000
0.000000 0.593750 0.000000
0.000000 0.609375 0.000000
0.000000 0.625000 0.000000
0.000000 0.640625 0.000000
0.000000 0.656250 0.000000
0.000000 0.671875 0.000000
0.000000 0.687500 0.000000
0.000000 0.703125 0.000000
0.000000 0.718750 0.000000
0.000000 0.734375 0.000000
0.000000 0.750000 0.000000
0.000000 0.765625 0.000000
0.000000 0.781250 0.000000
0.000000 0.796875 0.000000
0.000000 0.812500 0.000000
0.000000 0.828125 0.000000
0.000000 0.843750 0.000000
0.000000 0.859375 0.000000
0.000000 0.875000 0.000000
0.000000 0.890625 0.000000
0.000000 0.906250 0.000000
0.000000 0.921875 0.000000
0.000000 0.937500 0.000000
0.000000 0.953125 0.000000
0.000000 0.968750 0.000000
0.000000 0.984375 0.000000
0.000000 1.000000 0.000000
0.015625 0.000000 0.000000
0.015625 0.015625 0.000000
0.015625 0.031250 0.000000
0.015625 0.046875 0.000000
0.015625 0.062500 0.000000
0.015625 0.078125 0.000000
0.015625 0.093750 0.000000
0.015625 0.109375 0.000000
0.015625 0.125000 0.000000
0.015625 0.140625 0.000000
0.015625 0.156250 0.000000
0.015625 0.171875 0.000000
0.015625 0.187500 0.000000
0.015625 0.203125 0.000000
0.015625 0.218750 0.000000
0.015625 0.234375 0.000000
0.015625 0.250000 0.000000
0.015625 0.265625 0.000000
0.015625 0.281250 0.000000
0.015625 0.296875 0.000000
0.015625 0.312500 0.000000
0.015625 0.328125 0.000000
0.015625 0.343750 0.000000
0.015625 0.359375 0.000000
0.015625 0.375000 0.000000
0.015625 0.390625 0.000000
0.015625 0.406250 0.000000
0.015625 0.421875 0.000000
0.015625 0.437500 0.000000
0.015625 0.453125 0.000000
0.015625 0.468750 0.000000
0.015625 0.484375 0.000000
0.015625 0.500000 0.000000
0.015625 0.515625 0.000000
0.015625 0.531250 0.000000
0.015625 0.546875 0.000000
0.015625 0.562500 0.000000
0.015625 0.578125 0.000000
0.015625 0.593750 0.000000
0.015625 0.609375 0.000000
0.015625 0.625000 0.000000
0.015625 0.640625 0.000000
0.015625 0.656250 0.000000
0.015625 0.671875 0.000000
0.015625 0.687500 0.000000
0.015625 0.703125 0.000000
0.015625 0.718750 0.000000
0.015625 0.734375 0.000000
0.015625 0.750000 0.000000
0.015625 0.765625 0.000000
0.015625 0.781250 0.000000
0.015625 0.796875 0.000000
0.015625 0.812500 0.000000
0.015625 0.828125 0.000000
0.015625 0.843750 0.000000
0.015625 0.859375 0.000000
0.015625 0.875000 0.000000
0.015625 0.890625 0.000000
0.015625 0.906250 0.000000
0.015625 0.921875 0.000000
0.015625 0.937500 0.000000
0.015625 0.953125 0.000000
0.015625 0.968750 0.000000
0.015625 0.984375 0.000000
0.015625 1.000000 0.000000
0.031250 0.000000 0.000000
0.031250 0.015625 0.000000
0.031250 0.031250 0.000000
0.031250 0.046875 0.000000
0.031250 0.062500 0.000000
0.031250 0.078125 0.000000
0.031250 0.093750 0.000000
0.031250 0.109375 0.000000
0.031250 0.125000 0.000000
0.031250 0.140625 0.000000
0.031250 0.156250 0.000000
0.031250 0.171875 0.000000
0.031250 0.187500 0.000000
0.031250 0.203125 0.000000
0.031250 0.218750 0.000000
0.031250 0.234375 0.000000
0.031250 0.250000 0.000000
0.031250 0.265625 0.000000
0.031250 0.281250 0.000000
0.031250 0.296875 0.000000
0.031250 0.312500 0.000000
0.031250 0.328125 0.000000
0.031250 0.343750 0.000000
0.031250 0.359375 0.000000
0.031250 0.375000 0.000000
0.031250 0.390625 0.000000
0.031250 0.406250 0.000000
0.031250 0.421875 0.000000
0.031250 0.437500 0.000000
0.031250 0.453125 0.000000
0.031250 0.468750 0.000000
0.031250 0.484375 0.000000
0.031250 0.500000 0.000000
0.031250 0.515625 0.000000
0.031250 0.531250 0.000000
0.031250 0.546875 0.000000
0.031250 0.562500 0.000000
0.031250 0.578125 0.000000
0.031250 0.593750 0.000000
0.031250 0.609375 0.000000
0.031250 0.625000 0.000000
0.031250 0.640625 0.000000
0.031250 0.656250 0.000000
0.031250 0.671875 0.000000
0.031250 0.687500 0.000000
0.031250 0.703125 0.000000
0.031250 0.718750 0.000000
0.031250 0.734375 0.000000
0.031250 0.750000 0.000000
0.031250 0.765625 0.000000
0.031250 0.781250 0.000000
0.031250 0.796875 0.000000
0.031250 0.812500 0.000000
0.031250 0.828125 0.000000
0.031250 0.843750 0.000000
0.031250 0.859375 0.000000
0.031250 0.875000 0.000000
0.031250 0.890625 0.000000
0.031250 0.906250 0.000000
0.031250 0.921875 0.000000
0.031250 0.937500 0.000000
0.031250 0.953125 0.000000
0.031250 0.968750 0.000000
0.031250 0.984375 0.000000
0.031250 1.000000 0.000000
0.046875 0.000000 0.000000
0.046875 0.015625 0.000000
0.046875 0.031250 0.000000
0.046875 0.046875 0.000000
0.046875 0.062500 0.000000
0.046875 0.078125 0.000000
0.046875 0.093750 0.000000
0.046875 0.109375 0.000000
0.046875 0.125000 0.000000
0.046875 0.140625 0.000000
0.046875 0.156250 0.000000
0.046875 0.171875 0.000000
0.046875 0.187500 0.000000
0.046875 0.203125 0.000000
0.046875 0.218750 0.000000
0.046875 0.234375 0.000000
0.046875 0.250000 0.000000
0.046875 0.265625 0.000000
0.046875 0.281250 0.000000
0.046875 0.296875 0.000000
0.046875 0.312500 0.000000
0.046875 0.328125 0.000000
0.046875 0.343750 0.000000
0.046875 0.359375 0.000000
0.046875 0.375000 0.000000
0.046875 0.390625 0.000000
0.046875 0.406250 0.000000
0.046875 0.421875 0.000000
0.046875 0.437500 0.000000
0.046875 0.453125 0.000000
0.046875 0.468750 0.000000
0.046875 0.484375 0.000000
0.046875 0.500000 0.000000
0.046875 0.515625 0.000000
0.046875 0.531250 0.000000
0.046875 0.546875 0.000000
0.046875 0.562500 0.000000
0.046875 0.578125 0.000000
0.046875 0.593750 0.000000
0.046875 0.609375 0.000000
0.046875 0.625000 0.000000
0.046875 0.640625 0.000000
0.046875 0.656250 0.000000
0.046875 0.671875 0.000000
0.046875 0.687500 0.000000
0.046875 0.703125 0.000000
0.046875 0.718750 0.000000
0.046875 0.734375 0.000000
0.046875 0.750000 0.000000
0.046875 0.765625 0.000000
0.046875 0.781250 0.000000
0.046875 0.796875 0.000000
0.046875 0.812500 0.000000
0.046875 0.828125 0.000000
0.046875 0.843750 0.000000
0.046875 0.859375 0.000000
0.046875 0.875000 0.000000
0.046875 0.890625 0.000000
0.046875 0.906250 0.000000
0.046875 0.921875 0.000000
0.046875 0.937500 0.000000
0.046875 0.953125 0.000000
0.046875 0.968750 0.000000
0.046875 0.984375 0.000000
0.046875 1.000000 0.000000
0.062500 0.000000 0.000000
0.062500 0.015625 0.000000
0.062500 0.031250 0.000000
0.062500 0.046875 0.000000
0.062500 0.062500 0.000000
0.062500 0.078125 0.000000
0.062500 0.093750 0.000000
0.062500 0.109375 0.000000
0.062500 0.125000 0.000000
0.062500 0.140625 0.000000
0.062500 0.156250 0.000000
0.062500 0.171875 0.000000
0.062500 0.187500 0.000000
0.062500 0.203125 0.000000
0.062500 0.218750 0.000000
0.062500 0.234375 0.000000
0.062500 0.250000 0.000000
0.062500 0.265625 0.000000
0.062500 0.281250 0.000000
0.062500 0.296875 0.000000
0.062500 0.312500 0.000000
0.062500 0.328125 0.000000
0.062500 0.343750 0.000000
0.062500 0.359375 0.000000
0.062500 0.375000 0.000000
0.062500 0.390625 0.000000
0.062500 0.406250 0.000000
0.062500 0.421875 0.000000
0.062500 0.437500 0.000000
0.062500 0.453125 0.000000
0.062500 0.468750 0.000000
0.062500 0.484375 0.000000
0.062500 0.500000 0.000000
0.062500 0.515625 0.000000
0.062500 0.531250 0.000000
0.062500 0.546875 0.000000
0.062500 0.562500 0.000000
0.062500 0.578125 0.000000
0.062500 0.593750 0.000000
0.062500 0.609375 0.000000
0.062500 0.625000 0.000000
0.062500 0.640625 0.000000
0.062500 0.656250 0.000000
0.062500 0.671875 0.000000
0.062500 0.687500 0.000000
0.062500 0.703125 0.000000
0.062500 0.718750 0.000000
0.062500 0.734375 0.000000
0.062500 0.750000 0.000000
0.062500 0.765625 0.000000
0.062500 0.781250 0.000000
0.062500 0.796875 0.000000
0.062500 0.812500 0.000000
0.062500 0.828125 0.000000
0.062500 0.843750 0.000000
0.062500 0.859375 0.000000
0.062500 0.875000 0.000000
0.062500 0.890625 0.000000
0.062500 0.906250 0.000000
0.062500 0.921875 0.000000
0.062500 0.937500 0.000000
0.062500 0.953125 0.000000
0.062500 0.968750 0.000000
0.062500 0.984375 0.000000
0.062500 1.000000 0.000000
0.078125 0.000000 0.000000
0.078125 0.015625 0.000000
0.078125 0.031250 0.000000
0.078125 0.046875 0.000000
0.078125 0.062500 0.000000
0.078125 0.078125 0.000000
0.078125 0.093750 0.000000
0.078125 0.109375 0.000000
0.078125 0.125000 0.000000
0.078125 0.140625 0.000000
0.078125 0.156250 0.000000
0.078125 0.171875 0.000000
0.078125 0.187500 0.000000
0.078125 0.203125 0.000000
0.078125 0.218750 0.000000
0.078125 0.234375 0.000000
0.078125 0.250000 0.000000
0.078125 0.265625 0.000000
0.078125 0.281250 0.000000
0.078125 0.296875 0.000000
0.078125 0.312500 0.000000
0.078125 0.328125 0.000000
0.078125 0.343750 0.000000
0.078125 0.359375 0.000000
0.078125 0.375000 0.000000
0.078125 0.390625 0.000000
0.078125 0.406250 0.000000
0.078125 0.421875 0.000000
0.078125 0.437500 0.000000
0.078125 0.453125 0.000000
0.078125 0.468750 0.000000
0.078125 0.484375 0.000000
0.078125 0.500000 0.000000
0.078125 0.515625 0.000000
0.078125 0.531250 0.000000
0.078125 0.546875 0.000000
0.078125 0.562500 0.000000
0.078125 0.578125 0.000000
0.078125 0.593750 0.000000
0.078125 0.609375 0.000000
0.078125 0.625000 0.000000
[...]
POINT_DATA 4225
SCALARS phi FLOAT 1
LOOKUP_TABLE default
0.000000000000
0.000000059605
0.000000953674
0.000004827976
0.000015258789
0.000037252903
0.000077247620
0.000143110752
0.000244140625
0.000391066074
0.000596046448
0.000872671604
0.001235961914
0.001702368259
0.002289772034
0.003017485142
0.003906250000
0.004978239536
0.006257057190
0.007767736912
0.009536743164
0.011591970921
0.013962745667
0.016679823399
0.019775390625
0.023283064365
0.027237892151
0.031676352024
0.036636352539
0.042157232761
0.048279762268
0.055046141148
0.062500000000
0.070686399937
0.079651832581
0.089444220066
0.100112915039
0.111708700657
0.124283790588
0.137891829014
0.152587890625
0.168428480625
0.185471534729
0.203776419163
0.223403930664
0.244416296482
0.266877174377
0.290851652622
0.316406250000
0.343608915806
0.372529029846
0.403237402439
0.435806274414
0.470309317112
0.506821632385
0.545419752598
0.586181640625
0.629186689854
0.674515724182
0.722250998020
0.772476196289
0.825276434422
0.880738258362
0.938949644566
1.000000000000
0.000000059605
0.952250207369
0.884943447527
0.783213260830
0.660145051136
0.529894821631
0.405066831022
0.294879214535
0.204423844185
0.134948950252
0.084824389948
0.050758663195
0.028905490721
0.015652620461
0.008045333294
0.003908077918
0.001774226024
0.000729400661
0.000242968885
0.000027024485
-0.000064941178
-0.000103009786
-0.000118738812
-0.000125510619
-0.000128660615
-0.000130174237
-0.000130723987
-0.000130497857
-0.000129515925
-0.000127744300
-0.000125133867
-0.000121632874
-0.000117190999
-0.000111760867
-0.000105298892
-0.000097766014
-0.000089128496
-0.000079358824
-0.000068436729
-0.000056350363
-0.000043097633
-0.000028687721
-0.000013142832
0.000003499796
0.000021185575
0.000039839856
0.000059364764
0.000079635429
0.000100495494
0.000121751665
0.000143167015
0.000164452646
0.000185257086
0.000205152562
0.000223616768
0.000240007993
0.000253530041
0.000263180791
0.000267673122
0.000265306055
0.000253739120
0.000229560301
0.000187363869
0.000117519168
0.998535215855
0.000000953674
0.884943447527
0.822352040641
0.727783796523
0.613396071624
0.492341398828
0.376330819470
0.273929088340
0.189866761943
0.125302787588
0.078721503571
0.047063591483
0.026754389745
0.014436891191
0.007365261062
0.003517827847
0.001531767497
0.000557481200
0.000101984227
-0.000102150517
-0.000190961079
-0.000229473716
-0.000246924376
-0.000255667119
-0.000260584326
-0.000263450098
-0.000264822181
-0.000264811103
-0.000263373992
-0.000260420315
-0.000255847939
-0.000249555038
-0.000241444238
-0.000231424496
-0.000219412483
-0.000205333974
-0.000189125416
-0.000170735709
-0.000150128247
-0.000127283237
-0.000102200344
-0.000074901707
-0.000045435389
-0.000013879341
0.000019654024
0.000055012505
0.000091997884
0.000130358563
0.000169780771
0.000209877966
0.000250177855
0.000290106304
0.000328967034
0.000365915509
0.000399924636
0.000429738562
0.000453808682
0.000470202035
0.000476465275
0.000469413963
0.000444790926
0.000396685824
0.000316509700
0.000191162790
0.994141578674
0.000004827976
0.783213260830
0.727783796523
0.644060924157
0.542803934406
0.435652121081
0.332968884847
0.242333137103
0.167930540338
0.110785935949
0.069557233876
0.041536345006
0.023559260034
0.012654750686
0.006392612303
0.002983629191
0.001221736678
0.000355116370
-0.000052426419
-0.000237461696
-0.000320281822
-0.000358338887
-0.000377416630
-0.000388364027
-0.000395422483
-0.000400086576
-0.000402777715
-0.000403524364
-0.000402221837
-0.000398725857
-0.000392884611
-0.000384549604
-0.000373579758
-0.000359843648
-0.000343221409
-0.000323606783
-0.000300909434
-0.000275057598
-0.000246001106
-0.000213714815
-0.000178202511
-0.000139501359
-0.000097686976
-0.000052879248
-0.000005249037
0.000044974050
0.000097492595
0.000151930684
0.000207821236
0.000264590772
0.000321540928
0.000377825701
0.000432423021
0.000484098661
0.000531359548
0.000572392162
0.000604979385
0.000626385613
0.000633193956
0.000621069984
0.000584411866
0.000515827786
0.000405368887
0.000239491590
0.986821234226
0.000015258789
0.660145051136
0.613396071624
0.542803934406
0.457437684580
0.367107299488
0.280547011658
0.204144000380
0.141425410656
0.093254326923
0.058498954949
0.034876291563
0.019719198450
0.010523154847
0.005239754657
0.002360935978
0.000870205420
0.000133967527
-0.000215330721
-0.000376981284
-0.000452270887
-0.000489524049
-0.000510377576
-0.000523884568
-0.000533532626
-0.000540497417
-0.000545052927
-0.000547144561
-0.000546608066
-0.000543248509
-0.000536867580
-0.000527273169
-0.000514283386
-0.000497729147
-0.000477456604
-0.000453329834
-0.000425233889
-0.000393078279
-0.000356800933
-0.000316372690
-0.000271802392
-0.000223142673
-0.000170496546
-0.000114024936
-0.000053955326
0.000009408255
0.000075673629
0.000144346879
0.000214816312
0.000286333341
0.000357989480
0.000428688323
0.000497110999
0.000561673015
0.000620469528
0.000671204921
0.000711100750
0.000736773661
0.000744071437
0.000727851250
0.000681680773
0.000597445084
0.000464864176
0.000270999001
0.976577758789
0.000037252903
0.529894821631
0.492341398828
0.435652121081
0.367107299488
0.294581353864
0.225084843012
0.163744173256
0.113389950637
0.074714369538
0.046808416979
0.027839115187
0.015665260725
0.008276296038
0.004027882327
0.001709488595
0.000505217495
-0.000093443296
-0.000381435216
-0.000518627642
-0.000586218208
-0.000622892107
-0.000645914155
-0.000662450615
-0.000675202790
-0.000685018565
-0.000692024348
-0.000696085125
-0.000696980350
-0.000694467637
-0.000688305135
-0.000678259794
-0.000664111328
-0.000645655148
-0.000622705328
-0.000595097910
-0.000562694668
-0.000525387381
-0.000483102683
-0.000435807536
-0.000383515431
-0.000326293402
-0.000264269990
-0.000197644315
-0.000126696445
-0.000051799317
0.000026567484
0.000107801697
0.000191159605
0.000275733852
0.000360427026
0.000443919893
0.000524632828
0.000600678521
0.000669803359
0.000729314093
0.000775985293
0.000805941883
0.000814509973
0.000796028952
0.000743620595
0.000648920662
0.000501803004
0.000290175348
0.963416159153
0.000077247620
0.405066831022
0.376330819470
0.332968884847
0.280547011658
0.225084843012
0.171941319513
0.125034863563
0.086528803914
0.056951769353
0.035608406922
0.021097130217
0.011780832383
0.006122377923
0.002864673112
0.001082316548
0.000151634102
-0.000316034437
-0.000546064198
-0.000660562658
-0.000721490738
-0.000758308334
-0.000784100114
-0.000804231524
-0.000820655897
-0.000833911153
-0.000843985358
-0.000850668700
-0.000853688345
-0.000852757631
-0.000847593811
-0.000837925152
-0.000823494884
-0.000804064506
-0.000779417277
-0.000749362125
-0.000713738085
-0.000672419316
-0.000625320772
-0.000572404579
-0.000513687239
-0.000449247744
-0.000379236758
-0.000303887030
-0.000223525244
-0.000138585562
-0.000049625188
0.000042657669
0.000137402915
0.000233564169
0.000329880027
0.000424840014
0.000516643920
0.000603152940
0.000681830588
0.000749670925
0.000803111216
0.000837925909
0.000849099210
0.000830675320
0.000775590009
0.000675496889
0.000520618947
0.000299680796
0.947342872620
0.000143110752
0.294879214535
0.273929088340
0.242333137103
0.204144000380
0.163744173256
0.125034863563
0.090868386248
0.062819239489
0.041271824617
0.025719506718
0.015141575417
0.008345945756
0.004213401852
0.001828681705
0.000518065276
-0.000172456115
-0.000525762376
-0.000705835909
-0.000801463814
-0.000857636640
-0.000895678607
-0.000924989838
-0.000949349534
-0.000970052551
-0.000987363689
-0.001001148401
-0.001011129608
-0.001016986504
-0.001018391110
-0.001015022043
-0.001006570682
-0.000992745170
-0.000973274129
-0.000947910649
-0.000916436788
-0.000878668634
-0.000834462015
-0.000783718914
-0.000726394663
-0.000662506035
-0.000592140319
-0.000515465557
-0.000432742087
-0.000344335612
-0.000250732063
-0.000152554533
-0.000050582697
0.000054224845
0.000160704725
0.000267458773
0.000372818935
0.000474806141
0.000571081881
0.000658891105
0.000734994906
0.000795591484
0.000836224273
0.000851677203
0.000835859386
0.000781685805
0.000680967671
0.000524335921
0.000301231600
0.928365767002
0.000244140625
0.204423844185
0.189866761943
0.167930540338
0.141425410656
0.113389950637
0.086528803914
0.062819239489
0.043352512995
0.028394748042
0.017594327527
0.010243277832
0.005514884525
0.002633033204
0.000963086410
0.000037932667
-0.000457162085
-0.000718249926
-0.000858924110
-0.000940626484
-0.000994422523
-0.001034961912
-0.001068622313
-0.001097881273
-0.001123492153
-0.001145493412
-0.001163646760
-0.001177616060
-0.001187036722
-0.001191542026
-0.001190773754
-0.001184387694
-0.001172057794
-0.001153480271
-0.001128378115
-0.001096506116
-0.001057656522
-0.001011665369
-0.000958419560
-0.000897864791
-0.000830014396
-0.000754959259
-0.000672878916
-0.000584054031
-0.000488880431
-0.000387884967
-0.000281743459
-0.000171301097
-0.000057595685
0.000058115769
0.000174326556
0.000289245192
0.000400755009
0.000506367586
0.000603169162
0.000687759267
0.000756181105
0.000803843865
0.000825438375
0.000814849632
0.000765072961
0.000668144963
0.000515105240
0.000296008017
0.906494140625
0.000391066074
0.134948950252
0.125302787588
0.110785935949
0.093254326923
0.074714369538
0.056951769353
0.041271824617
0.028394748042
0.018495920741
0.011342869429
0.006467879472
0.003324900822
0.001401362778
0.000278173218
-0.000353090854
-0.000700196141
-0.000892511617
-0.001004934650
-0.001077909330
-0.001131809322
-0.001176159601
-0.001215016390
-0.001249855895
-0.001281012599
-0.001308346972
-0.001331535937
-0.001350192121
-0.001363910831
-0.001372288658
-0.001374931844
-0.001371461387
-0.001361517408
-0.001344763683
-0.001320892600
-0.001289630709
-0.001250744893
-0.001204049263
-0.001149412824
-0.001086768011
-0.001016120196
-0.000937558272
-0.000851266466
-0.000757537537
-0.000656787539
-0.000549572394
-0.000436606502
-0.000318783716
-0.000197201004
-0.000073185216
0.000051676630
0.000175503021
0.000296079110
0.000410812835
0.000516685610
0.000610197385
0.000687306253
0.000743363523
0.000773046240
0.000770290800
0.000728233407
0.000639165627
0.000494515219
0.000284862651
0.881738722324
0.000596046448
0.084824389948
0.078721503571
0.069557233876
0.058498954949
0.046808416979
0.035608406922
0.025719506718
0.017594327527
0.011342869429
0.006818690144
0.003727469792
0.001725687622
0.000490935787
-0.000240355512
-0.000662115239
-0.000904936084
-0.001050079251
-0.001144526926
-0.001213576184
-0.001269887965
-0.001319289560
-0.001364160464
-0.001405251104
-0.001442589090
-0.001475900664
-0.001504794780
-0.001528839501
-0.001547592946
-0.001560616483
-0.001567481576
-0.001567774732
-0.001561102137
-0.001547094577
-0.001525412844
-0.001495753730
-0.001457856677
-0.001411511151
-0.001356564813
-0.001292932573
-0.001220606629
-0.001139667595
-0.001050296860
-0.000952790319
-0.000847573646
-0.000735219321
-0.000616465605
-0.000492237746
-0.000363671670
-0.000232140467
-0.000099284004
0.000032958023
0.000162309295
0.000286116097
0.000401302489
0.000504321579
0.000591103470
0.000657001087
0.000696735937
0.000704347013
0.000673147354
0.000595693960
0.000463777372
0.000268436343
0.854111671448
0.000872671604
0.050758663195
0.047063591483
0.041536345006
0.034876291563
0.027839115187
0.021097130217
0.015141575417
0.010243277832
0.006467879472
0.003727469792
0.001845619939
0.000616486338
-0.000153078294
-0.000620934947
-0.000903193953
-0.001077996835
-0.001193909683
-0.001278943451
-0.001348101105
-0.001408800999
-0.001464355264
-0.001516000337
-0.001563988501
-0.001608132649
-0.001648060487
-0.001683326475
-0.001713459226
-0.001737981720
-0.001756420941
-0.001768313830
-0.001773212229
-0.001770687814
-0.001760337388
-0.001741788681
-0.001714706748
-0.001678801020
-0.001633833098
-0.001579625333
-0.001516070310
-0.001443141298
-0.001360903799
-0.001269528300
-0.001169304364
-0.001060656227
-0.000944160043
-0.000820562992
-0.000690804425
-0.000556039283
-0.000417663995
-0.000277345077
-0.000137050622
0.000000915185
0.000133874484
0.000258735222
0.000371948069
0.000469461506
0.000546676331
0.000598401455
0.000618813594
0.000601424199
0.000539057461
0.000423843170
0.000247227183
0.823626577854
0.001235961914
0.028905490721
0.026754389745
0.023559260034
0.019719198450
0.015665260725
0.011780832383
0.008345945756
0.005514884525
0.003324900822
0.001725687622
0.000616486338
-0.000120195340
-0.000594562816
-0.000896651499
-0.001092643254
-0.001227027889
-0.001327395167
-0.001409584218
-0.001481992340
-0.001548671995
-0.001611317973
-0.001670428333
-0.001725929429
-0.001777488818
-0.001824662269
-0.001866959534
-0.001903873278
-0.001934892520
-0.001959510117
-0.001977228255
-0.001987563503
-0.001990052042
-0.001984255285
-0.001969766034
-0.001946215211
-0.001913279261
-0.001870688275
-0.001818234911
-0.001755784202
-0.001683284323
-0.001600778433
-0.001508417685
-0.001406475536
-0.001295363484
-0.001175648366
-0.001048071378
-0.000913568963
-0.000773295731
-0.000628649551
-0.000481298958
-0.000333212936
-0.000186693123
-0.000044408326
0.000090568889
0.000214724014
0.000324061593
0.000414066526
0.000479667290
0.000515203077
0.000514397258
0.000470339694
0.000375480119
0.000221633913
0.790298461914
0.001702368259
0.015652620461
0.014436891191
0.012654750686
0.010523154847
0.008276296038
0.006122377923
0.004213401852
0.002633033204
0.001401362778
0.000490935787
-0.000153078294
-0.000594562816
-0.000893402903
-0.001098487370
-0.001245709779
-0.001359145657
-0.001453659125
-0.001537703799
-0.001615666950
-0.001689555156
-0.001760076802
-0.001827275483
-0.001890872044
-0.001950436885
-0.002005472011
-0.002055448889
-0.002099826264
-0.002138059598
-0.002169607357
-0.002193936313
-0.002210526771
-0.002218878058
-0.002218514447
-0.002208991590
-0.002189903544
-0.002160890443
-0.002121646893
-0.002071931146
-0.002011575143
-0.001940495502
-0.001858705544
-0.001766328445
-0.001663611633
-0.001550942523
-0.001428865722
-0.001298101806
-0.001159567791
-0.001014399413
-0.000863975287
-0.000709943029
-0.000554247328
-0.000399159920
-0.000247311301
-0.000101723848
0.000034154121
0.000156414089
0.000260653876
0.000341946240
0.000394811076
0.000413192889
0.000390445180
0.000319323033
0.000191984462
0.754143774509
0.002289772034
0.008045333294
0.007365261062
0.006392612303
0.005239754657
0.004027882327
0.002864673112
0.001828681705
0.000963086410
0.000278173218
-0.000240355512
-0.000620934947
-0.000896651499
-0.001098487370
-0.001251699161
-0.001374784559
-0.001480093346
-0.001575178598
-0.001664248714
-0.001749383239
-0.001831407956
-0.001910457795
-0.001986307239
-0.002058549834
-0.002126689749
-0.002190186566
-0.002248477148
-0.002300987157
-0.002347138270
-0.002386353850
-0.002418064240
-0.002441712156
-0.002456758412
-0.002462688082
-0.002459017168
-0.002445299844
-0.002421136350
-0.002386181569
-0.002340154392
-0.002282847911
-0.002214140540
-0.002134008122
-0.002042537128
-0.001939939025
-0.001826565903
-0.001702927461
-0.001569709433
-0.001427793537
-0.001278279018
-0.001122505826
-0.000962079435
-0.000798897273
-0.000635176638
-0.000473483903
-0.000316764684
-0.000168374493
-0.000032109244
0.000087765231
0.000186485641
0.000258766811
0.000298781526
0.000300145707
0.000255909633
0.000158555392
0.715180397034
0.003017485142
0.003908077918
0.003517827847
0.002983629191
0.002360935978
0.001709488595
0.001082316548
0.000518065276
0.000037932667
-0.000353090854
-0.000662115239
-0.000903193953
-0.001092643254
-0.001245709779
-0.001374784559
-0.001488893881
-0.001594001520
-0.001693676449
-0.001789810697
-0.001883221050
-0.001974082960
-0.002062210595
-0.002147222280
-0.002228631492
-0.002305894461
-0.002378434673
-0.002445656068
-0.002506951169
-0.002561707141
-0.002609311196
-0.002649155932
-0.002680644888
-0.002703198452
-0.002716260204
-0.002719303766
-0.002711840208
-0.002693426080
-0.002663672134
-0.002622252784
-0.002568916389
-0.002503496413
-0.002425923545
-0.002336238846
-0.002234607998
-0.002121336738
-0.001996887533
-0.001861897572
-0.001717198133
-0.001563835345
-0.001403092365
-0.001236512960
-0.001065926383
-0.000893473450
-0.000721633565
-0.000553252403
-0.000391569808
-0.000240247369
-0.000103394991
0.000014404288
0.000108072085
0.000172015839
0.000200114042
0.000185705924
0.000121585576
0.673427641392
0.003906250000
0.001774226024
0.001531767497
0.001221736678
0.000870205420
0.000505217495
0.000151634102
-0.000172456115
-0.000457162085
-0.000700196141
-0.000904936084
-0.001077996835
-0.001227027889
-0.001359145657
-0.001480093346
-0.001594001520
-0.001703530531
-0.001810185267
-0.001914653961
-0.002017092837
-0.002117332173
-0.002215010250
-0.002309653523
-0.002400721850
-0.002487633341
-0.002569778361
-0.002646528257
-0.002717241741
-0.002781270397
-0.002837963970
-0.002886675776
-0.002926768381
-0.002957619641
-0.002978629173
-0.002989225322
-0.002988872676
-0.002977080181
-0.002953409927
-0.002917486659
-0.002869008062
-0.002807755906
-0.002733608092
-0.002646551678
-0.002546696942
-0.002434292535
-0.002309741799
-0.002173620268
-0.002026694408
-0.001869941595
-0.001704571327
-0.001532047619
-0.001354112490
-0.001172810398
-0.000990513418
-0.000809946855
-0.000634214942
-0.000466826158
-0.000311717627
-0.000173278028
-0.000056368406
0.000033659657
0.000090948933
0.000109124699
0.000081286062
0.628906250000
0.004978239536
0.000729400661
0.000557481200
0.000355116370
0.000133967527
-0.000093443296
-0.000316034437
-0.000525762376
-0.000718249926
-0.000892511617
-0.001050079251
-0.001193909683
-0.001327395167
-0.001453659125
-0.001575178598
-0.001693676449
-0.001810185267
-0.001925189065
-0.002038776310
-0.002150769104
-0.002260817503
-0.002368461739
-0.002473170492
-0.002574363580
-0.002671425591
-0.002763714686
-0.002850569108
-0.002931312709
-0.003005260180
-0.003071722306
-0.003130011431
-0.003179447205
-0.003219362710
-0.003249111010
-0.003268072172
-0.003275660833
-0.003271334347
-0.003254601577
-0.003225032382
-0.003182267862
-0.003126031408
-0.003056140623
-0.002972520156
-0.002875215523
-0.002764407932
-0.002640430187
-0.002503783675
-0.002355156463
-0.002195442508
-0.002025761947
-0.001847482402
-0.001662241220
-0.001471968488
-0.001278910636
-0.001085654372
-0.000895150628
-0.000710738155
-0.000536166333
-0.000375616778
-0.000233723292
-0.000115589802
-0.000026806010
0.000026539325
0.000037847359
0.581638395786
0.006257057190
0.000242968885
0.000101984227
-0.000052426419
-0.000215330721
-0.000381435216
-0.000546064198
-0.000705835909
-0.000858924110
-0.001004934650
-0.001144526926
-0.001278943451
-0.001409584218
-0.001537703799
-0.001664248714
-0.001789810697
-0.001914653961
-0.002038776310
-0.002161975613
-0.002283906537
-0.002404122718
-0.002522105460
-0.002637282362
-0.002749039418
-0.002856729318
-0.002959677779
-0.003057188968
-0.003148550602
-0.003233039040
-0.003309924509
-0.003378476584
-0.003437969972
-0.003487690664
-0.003526942509
-0.003555054248
-0.003571387068
-0.003575342733
-0.003566372323
-0.003543985651
-0.003507761397
-0.003457358022
-0.003392525497
-0.003313117907
-0.003219106969
-0.003110596498
-0.002987837865
-0.002851246447
-0.002701419097
-0.002539152606
-0.002365463126
-0.002181606495
-0.001989099364
-0.001789740993
-0.001585635542
-0.001379214630
-0.001173259917
-0.000970925383
-0.000775759000
-0.000591723462
-0.000423215655
-0.000275084614
-0.000152647822
-0.000061705788
-0.000008555067
0.531647682190
0.007767736912
0.000027024485
-0.000102150517
-0.000237461696
-0.000376981284
-0.000518627642
-0.000660562658
-0.000801463814
-0.000940626484
-0.001077909330
-0.001213576184
-0.001348101105
-0.001481992340
-0.001615666950
-0.001749383239
-0.001883221050
-0.002017092837
-0.002150769104
-0.002283906537
-0.002416072583
-0.002546764422
-0.002675422695
-0.002801441316
-0.002924174753
-0.003042943890
-0.003157041175
-0.003265735508
-0.003368277107
-0.003463902496
-0.003551839695
-0.003631313677
-0.003701552142
-0.003761791648
-0.003811284156
-0.003849304031
-0.003875155537
-0.003888180893
-0.003887768913
-0.003873364302
-0.003844477630
-0.003800696055
-0.003741694821
-0.003667249581
-0.003577249581
-0.003471711731