# vtk DataFile Version 2.0
TITLE = "Quad data"
ASCII
DATASET STRUCTURED_GRID
DIMENSIONS 17 17 1
POINTS 289 FLOAT
0.000000 0.000000 0.000000
0.000000 0.062500 0.000000
0.000000 0.125000 0.000000
0.000000 0.187500 0.000000
0.000000 0.250000 0.000000
0.000000 0.312500 0.000000
0.000000 0.375000 0.000000
0.000000 0.437500 0.000000
0.000000 0.500000 0.000000
0.000000 0.562500 0.000000
0.000000 0.625000 0.000000
0.000000 0.687500 0.000000
0.000000 0.750000 0.000000
0.000000 0.812500 0.000000
0.000000 0.875000 0.000000
0.000000 0.937500 0.000000
0.000000 1.000000 0.000000
0.062500 0.000000 0.000000
0.062500 0.062500 0.000000
0.062500 0.125000 0.000000
0.062500 0.187500 0.000000
0.062500 0.250000 0.000000
0.062500 0.312500 0.000000
0.062500 0.375000 0.000000
0.062500 0.437500 0.000000
0.062500 0.500000 0.000000
0.062500 0.562500 0.000000
0.062500 0.625000 0.000000
0.062500 0.687500 0.000000
0.062500 0.750000 0.000000
0.062500 0.812500 0.000000
0.062500 0.875000 0.000000
0.062500 0.937500 0.000000
0.062500 1.000000 0.000000
0.125000 0.000000 0.000000
0.125000 0.062500 0.000000
0.125000 0.125000 0.000000
0.125000 0.187500 0.000000
0.125000 0.250000 0.000000
0.125000 0.312500 0.000000
0.125000 0.375000 0.000000
0.125000 0.437500 0.000000
0.125000 0.500000 0.000000
0.125000 0.562500 0.000000
0.125000 0.625000 0.000000
0.125000 0.687500 0.000000
0.125000 0.750000 0.000000
0.125000 0.812500 0.000000
0.125000 0.875000 0.000000
0.125000 0.937500 0.000000
0.125000 1.000000 0.000000
0.187500 0.000000 0.000000
0.187500 0.062500 0.000000
0.187500 0.125000 0.000000
0.187500 0.187500 0.000000
0.187500 0.250000 0.000000
0.187500 0.312500 0.000000
0.187500 0.375000 0.000000
0.187500 0.437500 0.000000
0.187500 0.500000 0.000000
0.187500 0.562500 0.000000
0.187500 0.625000 0.000000
0.187500 0.687500 0.000000
0.187500 0.750000 0.000000
0.187500 0.812500 0.000000
0.187500 0.875000 0.000000
0.187500 0.937500 0.000000
0.187500 1.000000 0.000000
0.250000 0.000000 0.000000
0.250000 0.062500 0.000000
0.250000 0.125000 0.000000
0.250000 0.187500 0.000000
0.250000 0.250000 0.000000
0.250000 0.312500 0.000000
0.250000 0.375000 0.000000
0.250000 0.437500 0.000000
0.250000 0.500000 0.000000
0.250000 0.562500 0.000000
0.250000 0.625000 0.000000
0.250000 0.687500 0.000000
0.250000 0.750000 0.000000
0.250000 0.812500 0.000000
0.250000 0.875000 0.000000
0.250000 0.937500 0.000000
0.250000 1.000000 0.000000
0.312500 0.000000 0.000000
0.312500 0.062500 0.000000
0.312500 0.125000 0.000000
0.312500 0.187500 0.000000
0.312500 0.250000 0.000000
0.312500 0.312500 0.000000
0.312500 0.375000 0.000000
0.312500 0.437500 0.000000
0.312500 0.500000 0.000000
0.312500 0.562500 0.000000
0.312500 0.625000 0.000000
0.312500 0.687500 0.000000
0.312500 0.750000 0.000000
0.312500 0.812500 0.000000
0.312500 0.875000 0.000000
0.312500 0.937500 0.000000
0.312500 1.000000 0.000000
0.375000 0.000000 0.000000
0.375000 0.062500 0.000000
0.375000 0.125000 0.000000
0.375000 0.187500 0.000000
0.375000 0.250000 0.000000
0.375000 0.312500 0.000000
0.375000 0.375000 0.000000
0.375000 0.437500 0.000000
0.375000 0.500000 0.000000
0.375000 0.562500 0.000000
0.375000 0.625000 0.000000
0.375000 0.687500 0.000000
0.375000 0.750000 0.000000
0.375000 0.812500 0.000000
0.375000 0.875000 0.000000
0.375000 0.937500 0.000000
0.375000 1.000000 0.000000
0.437500 0.000000 0.000000
0.437500 0.062500 0.000000
0.437500 0.125000 0.000000
0.437500 0.187500 0.000000
0.437500 0.250000 0.000000
0.437500 0.312500 0.000000
0.437500 0.375000 0.000000
0.437500 0.437500 0.000000
0.437500 0.500000 0.000000
0.437500 0.562500 0.000000
0.437500 0.625000 0.000000
0.437500 0.687500 0.000000
0.437500 0.750000 0.000000
0.437500 0.812500 0.000000
0.437500 0.875000 0.000000
0.437500 0.937500 0.000000
0.437500 1.000000 0.000000
0.500000 0.000000 0.000000
0.500000 0.062500 0.000000
0.500000 0.125000 0.000000
0.500000 0.187500 0.000000
0.500000 0.250000 0.000000
0.500000 0.312500 0.000000
0.500000 0.375000 0.000000
0.500000 0.437500 0.000000
0.500000 0.500000 0.000000
0.500000 0.562500 0.000000
0.500000 0.625000 0.000000
0.500000 0.687500 0.000000
0.500000 0.750000 0.000000
0.500000 0.812500 0.000000
0.500000 0.875000 0.000000
0.500000 0.937500 0.000000
0.500000 1.000000 0.000000
0.562500 0.000000 0.000000
0.562500 0.062500 0.000000
0.562500 0.125000 0.000000
0.562500 0.187500 0.000000
0.562500 0.250000 0.000000
0.562500 0.312500 0.000000
0.562500 0.375000 0.000000
0.562500 0.437500 0.000000
0.562500 0.500000 0.000000
0.562500 0.562500 0.000000
0.562500 0.625000 0.000000
0.562500 0.687500 0.000000
0.562500 0.750000 0.000000
0.562500 0.812500 0.000000
0.562500 0.875000 0.000000
0.562500 0.937500 0.000000
0.562500 1.000000 0.000000
0.625000 0.000000 0.000000
0.625000 0.062500 0.000000
0.625000 0.125000 0.000000
0.625000 0.187500 0.000000
0.625000 0.250000 0.000000
0.625000 0.312500 0.000000
0.625000 0.375000 0.000000
0.625000 0.437500 0.000000
0.625000 0.500000 0.000000
0.625000 0.562500 0.000000
0.625000 0.625000 0.000000
0.625000 0.687500 0.000000
0.625000 0.750000 0.000000
0.625000 0.812500 0.000000
0.625000 0.875000 0.000000
0.625000 0.937500 0.000000
0.625000 1.000000 0.000000
0.687500 0.000000 0.000000
0.687500 0.062500 0.000000
0.687500 0.125000 0.000000
0.687500 0.187500 0.000000
0.687500 0.250000 0.000000
0.687500 0.312500 0.000000
0.687500 0.375000 0.000000
0.687500 0.437500 0.000000
0.687500 0.500000 0.000000
0.687500 0.562500 0.000000
0.687500 0.625000 0.000000
0.687500 0.687500 0.000000
0.687500 0.750000 0.000000
0.687500 0.812500 0.000000
0.687500 0.875000 0.000000
0.687500 0.937500 0.000000
0.687500 1.000000 0.000000
0.750000 0.000000 0.000000
0.750000 0.062500 0.000000
0.750000 0.125000 0.000000
0.750000 0.187500 0.000000
0.750000 0.250000 0.000000
0.750000 0.312500 0.000000
0.750000 0.375000 0.000000
0.750000 0.437500 0.000000
0.750000 0.500000 0.000000
0.750000 0.562500 0.000000
0.750000 0.625000 0.000000
0.750000 0.687500 0.000000
0.750000 0.750000 0.000000
0.750000 0.812500 0.000000
0.750000 0.875000 0.000000
0.750000 0.937500 0.000000
0.750000 1.000000 0.000000
0.812500 0.000000 0.000000
0.812500 0.062500 0.000000
0.812500 0.125000 0.000000
0.812500 0.187500 0.000000
0.812500 0.250000 0.000000
0.812500 0.312500 0.000000
0.812500 0.375000 0.000000
0.812500 0.437500 0.000000
0.812500 0.500000 0.000000
0.812500 0.562500 0.000000
0.812500 0.625000 0.000000
0.812500 0.687500 0.000000
0.812500 0.750000 0.000000
0.812500 0.812500 0.000000
0.812500 0.875000 0.000000
0.812500 0.937500 0.000000
0.812500 1.000000 0.000000
0.875000 0.000000 0.000000
0.875000 0.062500 0.000000
0.875000 0.125000 0.000000
0.875000 0.187500 0.000000
0.875000 0.250000 0.000000
0.875000 0.312500 0.000000
0.875000 0.375000 0.000000
0.875000 0.437500 0.000000
0.875000 0.500000 0.000000
0.875000 0.562500 0.000000
0.875000 0.625000 0.000000
0.875000 0.687500 0.000000
0.875000 0.750000 0.000000
0.875000 0.812500 0.000000
0.875000 0.875000 0.000000
0.875000 0.937500 0.000000
0.875000 1.000000 0.000000
0.937500 0.000000 0.000000
0.937500 0.062500 0.000000
0.937500 0.125000 0.000000
0.937500 0.187500 0.000000
0.937500 0.250000 0.000000
0.937500 0.312500 0.000000
0.937500 0.375000 0.000000
0.937500 0.437500 0.000000
0.937500 0.500000 0.000000
0.937500 0.562500 0.000000
0.937500 0.625000 0.000000
0.937500 0.687500 0.000000
0.937500 0.750000 0.000000
0.937500 0.812500 0.000000
0.937500 0.875000 0.000000
0.937500 0.937500 0.000000
0.937500 1.000000 0.000000
1.000000 0.000000 0.000000
1.000000 0.062500 0.000000
1.000000 0.125000 0.000000
1.000000 0.187500 0.000000
1.000000 0.250000 0.000000
1.000000 0.312500 0.000000
1.000000 0.375000 0.000000
1.000000 0.437500 0.000000
1.000000 0.500000 0.000000
1.000000 0.562500 0.000000
1.000000 0.625000 0.000000
1.000000 0.687500 0.000000
1.000000 0.750000 0.000000
1.000000 0.812500 0.000000
1.000000 0.875000 0.000000
1.000000 0.937500 0.000000
1.000000 1.000000 0.000000
POINT_DATA 289
SCALARS phi FLOAT 1
LOOKUP_TABLE default
0.000000000000
0.000015258789
0.000244140625
0.001235961914
0.003906250000
0.009536743164
0.019775390625
0.036636352539
0.062500000000
0.100112915039
0.152587890625
0.223403930664
0.316406250000
0.435806274414
0.586181640625
0.772476196289
1.000000000000
0.000015258789
-0.000061035156
-0.000106811523
0.000427246094
0.002456665039
0.007263183594
0.016494750977
0.032165527344
0.056655883789
0.092712402344
0.143447875977
0.212341308594
0.303237915039
0.420349121094
0.568252563477
0.751892089844
0.976577758789
0.000244140625
-0.000106811523
-0.000976562500
-0.001815795898
-0.001708984375
0.000625610352
0.006835937500
0.018936157227
0.039306640625
0.070693969727
0.116210937500
0.179336547852
0.263916015625
0.374160766602
0.514648437500
0.690322875977
0.906494140625
0.001235961914
0.000427246094
-0.001815795898
-0.004943847656
-0.008041381836
-0.009826660156
-0.008651733398
-0.002502441406
0.011001586914
0.034606933594
0.071426391602
0.124938964844
0.198989868164
0.297790527344
0.425918579102
0.588317871094
0.790298461914
0.003906250000
0.002456665039
-0.001708984375
-0.008041381836
-0.015625000000
-0.023178100586
-0.029052734375
-0.031234741211
-0.027343750000
-0.014633178711
0.010009765625
0.050064086914
0.109375000000
0.192153930664
0.302978515625
0.446792602539
0.628906250000
0.009536743164
0.007263183594
0.000625610352
-0.009826660156
-0.023178100586
-0.038146972656
-0.053085327148
-0.065979003906
-0.074447631836
-0.075744628906
-0.066757202148
-0.044006347656
-0.003646850586
0.058532714844
0.147109985352
0.267028808594
0.423599243164
0.019775390625
0.016494750977
0.006835937500
-0.008651733398
-0.029052734375
-0.053085327148
-0.079101562500
-0.105087280273
-0.128662109375
-0.147079467773
-0.157226562500
-0.155624389648
-0.138427734375
-0.101425170898
-0.040039062500
0.050674438477
0.176025390625
0.036636352539
0.032165527344
0.018936157227
-0.002502441406
-0.031234741211
-0.065979003906
-0.105087280273
-0.146545410156
-0.187973022461
-0.226623535156
-0.259384155273
-0.282775878906
-0.292953491211
-0.285705566406
-0.256454467773
-0.200256347656
-0.111801147461
0.062500000000
0.056655883789
0.039306640625
0.011001586914
-0.027343750000
-0.074447631836
-0.128662109375
-0.187973022461
-0.250000000000
-0.311996459961
-0.370849609375
-0.423080444336
-0.464843750000
-0.491928100586
-0.499755859375
-0.483383178711
-0.437500000000
0.100112915039
0.092712402344
0.070693969727
0.034606933594
-0.014633178711
-0.075744628906
-0.147079467773
-0.226623535156
-0.311996459961
-0.400451660156
-0.488876342773
-0.573791503906
-0.651351928711
-0.717346191406
-0.767196655273
-0.795959472656
-0.798324584961
0.152587890625
0.143447875977
0.116210937500
0.071426391602
0.010009765625
-0.066757202148
-0.157226562500
-0.259384155273
-0.370849609375
-0.488876342773
-0.610351562500
-0.731796264648
-0.849365234375
-0.958847045898
-1.055664062500
-1.134872436523
-1.191162109375
0.223403930664
0.212341308594
0.179336547852
0.124938964844
0.050064086914
-0.044006347656
-0.155624389648
-0.282775878906
-0.423080444336
-0.573791503906
-0.731796264648
-0.893615722656
-1.055404663086
-1.212951660156
-1.361679077148
-1.496643066406
-1.612533569336
0.316406250000
0.303237915039
0.263916015625
0.198989868164
0.109375000000
-0.003646850586
-0.138427734375
-0.292953491211
-0.464843750000
-0.651351928711
-0.849365234375
-1.055404663086
-1.265625000000
-1.475814819336
-1.681396484375
-1.877426147461
-2.058593750000
0.435806274414
0.420349121094
0.374160766602
0.297790527344
0.192153930664
0.058532714844
-0.101425170898
-0.285705566406
-0.491928100586
-0.717346191406
-0.958847045898
-1.212951660156
-1.475814819336
-1.743225097656
-2.010604858398
-2.273010253906
-2.525131225586
0.586181640625
0.568252563477
0.514648437500
0.425918579102
0.302978515625
0.147109985352
-0.040039062500
-0.256454467773
-0.499755859375
-0.767196655273
-1.055664062500
-1.361679077148
-1.681396484375
-2.010604858398
-2.344726562500
-2.678817749023
-3.007568359375
0.772476196289
0.751892089844
0.690322875977
0.588317871094
0.446792602539
0.267028808594
0.050674438477
-0.200256347656
-0.483383178711
-0.795959472656
-1.134872436523
-1.496643066406
-1.877426147461
-2.273010253906
-2.678817749023
-3.089904785156
-3.500961303711
1.000000000000
0.976577758789
0.906494140625
0.790298461914
0.628906250000
0.423599243164
0.176025390625
-0.111801147461
-0.437500000000
-0.798324584961
-1.191162109375
-1.612533569336
-2.058593750000
-2.525131225586
-3.007568359375
-3.500961303711
-4.000000000000
