# vtk DataFile Version 2.0
TITLE = "Quad data"
ASCII
DATASET STRUCTURED_GRID
DIMENSIONS 17 17 1
POINTS 289 FLOAT
0.000000 0.000000 0.000000
0.000000 0.062500 0.000000
0.000000 0.125000 0.000000
0.000000 0.187500 0.000000
0.000000 0.250000 0.000000
0.000000 0.312500 0.000000
0.000000 0.375000 0.000000
0.000000 0.437500 0.000000
0.000000 0.500000 0.000000
0.000000 0.562500 0.000000
0.000000 0.625000 0.000000
0.000000 0.687500 0.000000
0.000000 0.750000 0.000000
0.000000 0.812500 0.000000
0.000000 0.875000 0.000000
0.000000 0.937500 0.000000
0.000000 1.000000 0.000000
0.062500 0.000000 0.000000
0.062500 0.062500 0.000000
0.062500 0.125000 0.000000
0.062500 0.187500 0.000000
0.062500 0.250000 0.000000
0.062500 0.312500 0.000000
0.062500 0.375000 0.000000
0.062500 0.437500 0.000000
0.062500 0.500000 0.000000
0.062500 0.562500 0.000000
0.062500 0.625000 0.000000
0.062500 0.687500 0.000000
0.062500 0.750000 0.000000
0.062500 0.812500 0.000000
0.062500 0.875000 0.000000
0.062500 0.937500 0.000000
0.062500 1.000000 0.000000
0.125000 0.000000 0.000000
0.125000 0.062500 0.000000
0.125000 0.125000 0.000000
0.125000 0.187500 0.000000
0.125000 0.250000 0.000000
0.125000 0.312500 0.000000
0.125000 0.375000 0.000000
0.125000 0.437500 0.000000
0.125000 0.500000 0.000000
0.125000 0.562500 0.000000
0.125000 0.625000 0.000000
0.125000 0.687500 0.000000
0.125000 0.750000 0.000000
0.125000 0.812500 0.000000
0.125000 0.875000 0.000000
0.125000 0.937500 0.000000
0.125000 1.000000 0.000000
0.187500 0.000000 0.000000
0.187500 0.062500 0.000000
0.187500 0.125000 0.000000
0.187500 0.187500 0.000000
0.187500 0.250000 0.000000
0.187500 0.312500 0.000000
0.187500 0.375000 0.000000
0.187500 0.437500 0.000000
0.187500 0.500000 0.000000
0.187500 0.562500 0.000000
0.187500 0.625000 0.000000
0.187500 0.687500 0.000000
0.187500 0.750000 0.000000
0.187500 0.812500 0.000000
0.187500 0.875000 0.000000
0.187500 0.937500 0.000000
0.187500 1.000000 0.000000
0.250000 0.000000 0.000000
0.250000 0.062500 0.000000
0.250000 0.125000 0.000000
0.250000 0.187500 0.000000
0.250000 0.250000 0.000000
0.250000 0.312500 0.000000
0.250000 0.375000 0.000000
0.250000 0.437500 0.000000
0.250000 0.500000 0.000000
0.250000 0.562500 0.000000
0.250000 0.625000 0.000000
0.250000 0.687500 0.000000
0.250000 0.750000 0.000000
0.250000 0.812500 0.000000
0.250000 0.875000 0.000000
0.250000 0.937500 0.000000
0.250000 1.000000 0.000000
0.312500 0.000000 0.000000
0.312500 0.062500 0.000000
0.312500 0.125000 0.000000
0.312500 0.187500 0.000000
0.312500 0.250000 0.000000
0.312500 0.312500 0.000000
0.312500 0.375000 0.000000
0.312500 0.437500 0.000000
0.312500 0.500000 0.000000
0.312500 0.562500 0.000000
0.312500 0.625000 0.000000
0.312500 0.687500 0.000000
0.312500 0.750000 0.000000
0.312500 0.812500 0.000000
0.312500 0.875000 0.000000
0.312500 0.937500 0.000000
0.312500 1.000000 0.000000
0.375000 0.000000 0.000000
0.375000 0.062500 0.000000
0.375000 0.125000 0.000000
0.375000 0.187500 0.000000
0.375000 0.250000 0.000000
0.375000 0.312500 0.000000
0.375000 0.375000 0.000000
0.375000 0.437500 0.000000
0.375000 0.500000 0.000000
0.375000 0.562500 0.000000
0.375000 0.625000 0.000000
0.375000 0.687500 0.000000
0.375000 0.750000 0.000000
0.375000 0.812500 0.000000
0.375000 0.875000 0.000000
0.375000 0.937500 0.000000
0.375000 1.000000 0.000000
0.437500 0.000000 0.000000
0.437500 0.062500 0.000000
0.437500 0.125000 0.000000
0.437500 0.187500 0.000000
0.437500 0.250000 0.000000
0.437500 0.312500 0.000000
0.437500 0.375000 0.000000
0.437500 0.437500 0.000000
0.437500 0.500000 0.000000
0.437500 0.562500 0.000000
0.437500 0.625000 0.000000
0.437500 0.687500 0.000000
0.437500 0.750000 0.000000
0.437500 0.812500 0.000000
0.437500 0.875000 0.000000
0.437500 0.937500 0.000000
0.437500 1.000000 0.000000
0.500000 0.000000 0.000000
0.500000 0.062500 0.000000
0.500000 0.125000 0.000000
0.500000 0.187500 0.000000
0.500000 0.250000 0.000000
0.500000 0.312500 0.000000
0.500000 0.375000 0.000000
0.500000 0.437500 0.000000
0.500000 0.500000 0.000000
0.500000 0.562500 0.000000
0.500000 0.625000 0.000000
0.500000 0.687500 0.000000
0.500000 0.750000 0.000000
0.500000 0.812500 0.000000
0.500000 0.875000 0.000000
0.500000 0.937500 0.000000
0.500000 1.000000 0.000000
0.562500 0.000000 0.000000
0.562500 0.062500 0.000000
0.562500 0.125000 0.000000
0.562500 0.187500 0.000000
0.562500 0.250000 0.000000
0.562500 0.312500 0.000000
0.562500 0.375000 0.000000
0.562500 0.437500 0.000000
0.562500 0.500000 0.000000
0.562500 0.562500 0.000000
0.562500 0.625000 0.000000
0.562500 0.687500 0.000000
0.562500 0.750000 0.000000
0.562500 0.812500 0.000000
0.562500 0.875000 0.000000
0.562500 0.937500 0.000000
0.562500 1.000000 0.000000
0.625000 0.000000 0.000000
0.625000 0.062500 0.000000
0.625000 0.125000 0.000000
0.625000 0.187500 0.000000
0.625000 0.250000 0.000000
0.625000 0.312500 0.000000
0.625000 0.375000 0.000000
0.625000 0.437500 0.000000
0.625000 0.500000 0.000000
0.625000 0.562500 0.000000
0.625000 0.625000 0.000000
0.625000 0.687500 0.000000
0.625000 0.750000 0.000000
0.625000 0.812500 0.000000
0.625000 0.875000 0.000000
0.625000 0.937500 0.000000
0.625000 1.000000 0.000000
0.687500 0.000000 0.000000
0.687500 0.062500 0.000000
0.687500 0.125000 0.000000
0.687500 0.187500 0.000000
0.687500 0.250000 0.000000
0.687500 0.312500 0.000000
0.687500 0.375000 0.000000
0.687500 0.437500 0.000000
0.687500 0.500000 0.000000
0.687500 0.562500 0.000000
0.687500 0.625000 0.000000
0.687500 0.687500 0.000000
0.687500 0.750000 0.000000
0.687500 0.812500 0.000000
0.687500 0.875000 0.000000
0.687500 0.937500 0.000000
0.687500 1.000000 0.000000
0.750000 0.000000 0.000000
0.750000 0.062500 0.000000
0.750000 0.125000 0.000000
0.750000 0.187500 0.000000
0.750000 0.250000 0.000000
0.750000 0.312500 0.000000
0.750000 0.375000 0.000000
0.750000 0.437500 0.000000
0.750000 0.500000 0.000000
0.750000 0.562500 0.000000
0.750000 0.625000 0.000000
0.750000 0.687500 0.000000
0.750000 0.750000 0.000000
0.750000 0.812500 0.000000
0.750000 0.875000 0.000000
0.750000 0.937500 0.000000
0.750000 1.000000 0.000000
0.812500 0.000000 0.000000
0.812500 0.062500 0.000000
0.812500 0.125000 0.000000
0.812500 0.187500 0.000000
0.812500 0.250000 0.000000
0.812500 0.312500 0.000000
0.812500 0.375000 0.000000
0.812500 0.437500 0.000000
0.812500 0.500000 0.000000
0.812500 0.562500 0.000000
0.812500 0.625000 0.000000
0.812500 0.687500 0.000000
0.812500 0.750000 0.000000
0.812500 0.812500 0.000000
0.812500 0.875000 0.000000
0.812500 0.937500 0.000000
0.812500 1.000000 0.000000
0.875000 0.000000 0.000000
0.875000 0.062500 0.000000
0.875000 0.125000 0.000000
0.875000 0.187500 0.000000
0.875000 0.250000 0.000000
0.875000 0.312500 0.000000
0.875000 0.375000 0.000000
0.875000 0.437500 0.000000
0.875000 0.500000 0.000000
0.875000 0.562500 0.000000
0.875000 0.625000 0.000000
0.875000 0.687500 0.000000
0.875000 0.750000 0.000000
0.875000 0.812500 0.000000
0.875000 0.875000 0.000000
0.875000 0.937500 0.000000
0.875000 1.000000 0.000000
0.937500 0.000000 0.000000
0.937500 0.062500 0.000000
0.937500 0.125000 0.000000
0.937500 0.187500 0.000000
0.937500 0.250000 0.000000
0.937500 0.312500 0.000000
0.937500 0.375000 0.000000
0.937500 0.437500 0.000000
0.937500 0.500000 0.000000
0.937500 0.562500 0.000000
0.937500 0.625000 0.000000
0.937500 0.687500 0.000000
0.937500 0.750000 0.000000
0.937500 0.812500 0.000000
0.937500 0.875000 0.000000
0.937500 0.937500 0.000000
0.937500 1.000000 0.000000
1.000000 0.000000 0.000000
1.000000 0.062500 0.000000
1.000000 0.125000 0.000000
1.000000 0.187500 0.000000
1.000000 0.250000 0.000000
1.000000 0.312500 0.000000
1.000000 0.375000 0.000000
1.000000 0.437500 0.000000
1.000000 0.500000 0.000000
1.000000 0.562500 0.000000
1.000000 0.625000 0.000000
1.000000 0.687500 0.000000
1.000000 0.750000 0.000000
1.000000 0.812500 0.000000
1.000000 0.875000 0.000000
1.000000 0.937500 0.000000
1.000000 1.000000 0.000000
POINT_DATA 289
SCALARS phi FLOAT 1
LOOKUP_TABLE default
0.000000000000
0.000015258789
0.000244140625
0.001235961914
0.003906250000
0.009536743164
0.019775390625
0.036636352539
0.062500000000
0.100112915039
0.152587890625
0.223403930664
0.316406250000
0.435806274414
0.586181640625
0.772476196289
1.000000000000
0.000015258789
-0.000332289677
0.000346293513
0.000556419047
0.002702192842
0.007536345834
0.016781166749
0.032461816128
0.056955615950
0.093009056721
0.143735432838
0.212612969710
0.303475060104
0.420617455715
0.568256856265
0.752204791182
0.976577758789
0.000244140625
0.000346293513
-0.000867154703
-0.001436978003
-0.001252960550
0.001110251585
0.007353937354
0.019474168521
0.039850537806
0.071231041133
0.116729063539
0.179824219948
0.264338720984
0.374539781145
0.514985296616
0.690337315528
0.906494140625
0.001235961914
0.000556419047
-0.001436978003
-0.004420140094
-0.007456409846
-0.009172011911
-0.007946799036
-0.001770470018
0.011742327396
0.035338790959
0.072131656531
0.125602101864
0.199576940652
0.298289059350
0.426286919381
0.588585541740
0.790298461914
0.003906250000
0.002702192842
-0.001252960550
-0.007456409846
-0.014924508873
-0.022387391954
-0.028203994527
-0.030352907816
-0.026450908950
-0.013751843415
0.010856565838
0.050854785919
0.110075875349
0.192748378034
0.303398980479
0.447035195639
0.628906250000
0.009536743164
0.007536345834
0.001110251585
-0.009172011911
-0.022387391954
-0.037258291332
-0.052130398394
-0.064984858767
-0.073440307578
-0.074750214862
-0.065802235196
-0.043117279574
-0.002858910567
0.059198027684
0.147592972510
0.267302566529
0.423599243164
0.019775390625
0.016781166749
0.007353937354
-0.007946799036
-0.028203994527
-0.052130398394
-0.078073170101
-0.104015539624
-0.127576060434
-0.146007691142
-0.156198031866
-0.154669159159
-0.137581499901
-0.100718402313
-0.039522550979
0.050963217463
0.176025390625
0.036636352539
0.032461816128
0.019474168521
-0.001770470018
-0.030352907816
-0.064984858767
-0.104015539624
-0.145428056217
-0.186840679107
-0.225506184557
-0.258312210932
-0.281781842289
-0.292071325957
-0.284974729083
-0.255916348397
-0.199960316789
-0.111801147461
0.062500000000
0.056955615950
0.039850537806
0.011742327396
-0.026450908950
-0.073440307578
-0.127576060434
-0.186840679107
-0.248852461707
-0.310864146007
-0.369763445219
-0.422074501596
-0.463948526677
-0.491191553075
-0.499207781012
-0.483086333253
-0.437500000000
0.100112915039
0.093009056721
0.071231041133
0.035338790959
-0.013751843415
-0.074750214862
-0.146007691142
-0.225506184557
-0.310864146007
-0.399334236706
-0.487804167247
-0.572799153931
-0.650464897446
-0.716621083647
-0.766649952430
-0.795668170115
-0.798324584961
0.152587890625
0.143735432838
0.116729063539
0.072131656531
0.010856565838
-0.065802235196
-0.156198031866
-0.258312210932
-0.369763445219
-0.487804167247
-0.609321869038
-0.730843002067
-0.848508154533
-0.958152713000
-1.055133374998
-1.134594863640
-1.191162109375
0.223403930664
0.212612969710
0.179824219948
0.125602101864
0.050854785919
-0.043117279574
-0.154669159159
-0.281781842289
-0.422074501596
-0.572799153931
-0.730843002067
-0.892734815192
-1.054611078666
-1.212320729689
-1.361185302039
-1.496386102820
-1.612533569336
0.316406250000
0.303475060104
0.264338720984
0.199576940652
0.110075875349
-0.002858910567
-0.137581499901
-0.292071325957
-0.463948526677
-0.650464897446
-0.848508154533
-1.054611078666
-1.264901987056
-1.475229728591
-1.680889436218
-1.877161460730
-2.058593750000
0.435806274414
0.420617455715
0.374539781145
0.298289059350
0.192748378034
0.059198027684
-0.100718402313
-0.284974729083
-0.491191553075
-0.716621083647
-0.958152713000
-1.212320729689
-1.475229728591
-1.742737815414
-2.010238594271
-2.273030772622
-2.525131225586
0.586181640625
0.568256856265
0.514985296616
0.426286919381
0.303398980479
0.147592972510
-0.039522550979
-0.255916348397
-0.499207781012
-0.766649952430
-1.055133374998
-1.361185302039
-1.680889436218
-2.010238594271
-2.344661876946
-2.678042178558
-3.007568359375
0.772476196289
0.752204791182
0.690337315528
0.588585541740
0.447035195639
0.267302566529
0.050963217463
-0.199960316789
-0.483086333253
-0.795668170115
-1.134594863640
-1.496386102820
-1.877161460730
-2.273030772622
-2.678042178558
-3.090672157645
-3.500961303711
1.000000000000
0.976577758789
0.906494140625
0.790298461914
0.628906250000
0.423599243164
0.176025390625
-0.111801147461
-0.437500000000
-0.798324584961
-1.191162109375
-1.612533569336
-2.058593750000
-2.525131225586
-3.007568359375
-3.500961303711
-4.000000000000
