# vtk DataFile Version 2.0
TITLE = "Quad data"
ASCII
DATASET STRUCTURED_GRID
DIMENSIONS 65 65 1
POINTS 4225 FLOAT
0.000000 0.000000 0.000000
0.000000 0.015625 0.000000
0.000000 0.031250 0.000000
0.000000 0.046875 0.000000
0.000000 0.062500 0.000000
0.000000 0.078125 0.000000
0.000000 0.093750 0.000000
0.000000 0.109375 0.000000
0.000000 0.125000 0.000000
0.000000 0.140625 0.000000
0.000000 0.156250 0.000000
0.000000 0.171875 0.000000
0.000000 0.187500 0.000000
0.000000 0.203125 0.000000
0.000000 0.218750 0.000000
0.000000 0.234375 0.000000
0.000000 0.250000 0.000000
0.000000 0.265625 0.000000
0.000000 0.281250 0.000000
0.000000 0.296875 0.000000
0.000000 0.312500 0.000000
0.000000 0.328125 0.000000
0.000000 0.343750 0.000000
0.000000 0.359375 0.000000
0.000000 0.375000 0.000000
0.000000 0.390625 0.000000
0.000000 0.406250 0.000000
0.000000 0.421875 0.000000
0.000000 0.437500 0.000000
0.000000 0.453125 0.000000
0.000000 0.468750 0.000000
0.000000 0.484375 0.000000
0.000000 0.500000 0.000000
0.000000 0.515625 0.000000
0.000000 0.531250 0.000000
0.000000 0.546875 0.000000
0.000000 0.562500 0.000000
0.000000 0.578125 0.000000
0.000000 0.593750 0.000000
0.000000 0.609375 0.000000
0.000000 0.625000 0.000000
0.000000 0.640625 0.000000
0.000000 0.656250 0.000000
0.000000 0.671875 0.000000
0.000000 0.687500 0.000000
0.000000 0.703125 0.000000
0.000000 0.718750 0.000000
0.000000 0.734375 0.000000
0.000000 0.750000 0.000000
0.000000 0.765625 0.000000
0.000000 0.781250 0.000000
0.000000 0.796875 0.000000
0.000000 0.812500 0.000000
0.000000 0.828125 0.000000
0.000000 0.843750 0.000000
0.000000 0.859375 0.000000
0.000000 0.875000 0.000000
0.000000 0.890625 0.000000
0.000000 0.906250 0.000000
0.000000 0.921875 0.000000
0.000000 0.937500 0.000000
0.000000 0.953125 0.000000
0.000000 0.968750 0.000000
0.000000 0.984375 0.000000
0.000000 1.000000 0.000000
0.015625 0.000000 0.000000
0.015625 0.015625 0.000000
0.015625 0.031250 0.000000
0.015625 0.046875 0.000000
0.015625 0.062500 0.000000
0.015625 0.078125 0.000000
0.015625 0.093750 0.000000
0.015625 0.109375 0.000000
0.015625 0.125000 0.000000
0.015625 0.140625 0.000000
0.015625 0.156250 0.000000
0.015625 0.171875 0.000000
0.015625 0.187500 0.000000
0.015625 0.203125 0.000000
0.015625 0.218750 0.000000
0.015625 0.234375 0.000000
0.015625 0.250000 0.000000
0.015625 0.265625 0.000000
0.015625 0.281250 0.000000
0.015625 0.296875 0.000000
0.015625 0.312500 0.000000
0.015625 0.328125 0.000000
0.015625 0.343750 0.000000
0.015625 0.359375 0.000000
0.015625 0.375000 0.000000
0.015625 0.390625 0.000000
0.015625 0.406250 0.000000
0.015625 0.421875 0.000000
0.015625 0.437500 0.000000
0.015625 0.453125 0.000000
0.015625 0.468750 0.000000
0.015625 0.484375 0.000000
0.015625 0.500000 0.000000
0.015625 0.515625 0.000000
0.015625 0.531250 0.000000
0.015625 0.546875 0.000000
0.015625 0.562500 0.000000
0.015625 0.578125 0.000000
0.015625 0.593750 0.000000
0.015625 0.609375 0.000000
0.015625 0.625000 0.000000
0.015625 0.640625 0.000000
0.015625 0.656250 0.000000
0.015625 0.671875 0.000000
0.015625 0.687500 0.000000
0.015625 0.703125 0.000000
0.015625 0.718750 0.000000
0.015625 0.734375 0.000000
0.015625 0.750000 0.000000
0.015625 0.765625 0.000000
0.015625 0.781250 0.000000
0.015625 0.796875 0.000000
0.015625 0.812500 0.000000
0.015625 0.828125 0.000000
0.015625 0.843750 0.000000
0.015625 0.859375 0.000000
0.015625 0.875000 0.000000
0.015625 0.890625 0.000000
0.015625 0.906250 0.000000
0.015625 0.921875 0.000000
0.015625 0.937500 0.000000
0.015625 0.953125 0.000000
0.015625 0.968750 0.000000
0.015625 0.984375 0.000000
0.015625 1.000000 0.000000
0.031250 0.000000 0.000000
0.031250 0.015625 0.000000
0.031250 0.031250 0.000000
0.031250 0.046875 0.000000
0.031250 0.062500 0.000000
0.031250 0.078125 0.000000
0.031250 0.093750 0.000000
0.031250 0.109375 0.000000
0.031250 0.125000 0.000000
0.031250 0.140625 0.000000
0.031250 0.156250 0.000000
0.031250 0.171875 0.000000
0.031250 0.187500 0.000000
0.031250 0.203125 0.000000
0.031250 0.218750 0.000000
0.031250 0.234375 0.000000
0.031250 0.250000 0.000000
0.031250 0.265625 0.000000
0.031250 0.281250 0.000000
0.031250 0.296875 0.000000
0.031250 0.312500 0.000000
0.031250 0.328125 0.000000
0.031250 0.343750 0.000000
0.031250 0.359375 0.000000
0.031250 0.375000 0.000000
0.031250 0.390625 0.000000
0.031250 0.406250 0.000000
0.031250 0.421875 0.000000
0.031250 0.437500 0.000000
0.031250 0.453125 0.000000
0.031250 0.468750 0.000000
0.031250 0.484375 0.000000
0.031250 0.500000 0.000000
0.031250 0.515625 0.000000
0.031250 0.531250 0.000000
0.031250 0.546875 0.000000
0.031250 0.562500 0.000000
0.031250 0.578125 0.000000
0.031250 0.593750 0.000000
0.031250 0.609375 0.000000
0.031250 0.625000 0.000000
0.031250 0.640625 0.000000
0.031250 0.656250 0.000000
0.031250 0.671875 0.000000
0.031250 0.687500 0.000000
0.031250 0.703125 0.000000
0.031250 0.718750 0.000000
0.031250 0.734375 0.000000
0.031250 0.750000 0.000000
0.031250 0.765625 0.000000
0.031250 0.781250 0.000000
0.031250 0.796875 0.000000
0.031250 0.812500 0.000000
0.031250 0.828125 0.000000
0.031250 0.843750 0.000000
0.031250 0.859375 0.000000
0.031250 0.875000 0.000000
0.031250 0.890625 0.000000
0.031250 0.906250 0.000000
0.031250 0.921875 0.000000
0.031250 0.937500 0.000000
0.031250 0.953125 0.000000
0.031250 0.968750 0.000000
0.031250 0.984375 0.000000
0.031250 1.000000 0.000000
0.046875 0.000000 0.000000
0.046875 0.015625 0.000000
0.046875 0.031250 0.000000
0.046875 0.046875 0.000000
0.046875 0.062500 0.000000
0.046875 0.078125 0.000000
0.046875 0.093750 0.000000
0.046875 0.109375 0.000000
0.046875 0.125000 0.000000
0.046875 0.140625 0.000000
0.046875 0.156250 0.000000
0.046875 0.171875 0.000000
0.046875 0.187500 0.000000
0.046875 0.203125 0.000000
0.046875 0.218750 0.000000
0.046875 0.234375 0.000000
0.046875 0.250000 0.000000
0.046875 0.265625 0.000000
0.046875 0.281250 0.000000
0.046875 0.296875 0.000000
0.046875 0.312500 0.000000
0.046875 0.328125 0.000000
0.046875 0.343750 0.000000
0.046875 0.359375 0.000000
0.046875 0.375000 0.000000
0.046875 0.390625 0.000000
0.046875 0.406250 0.000000
0.046875 0.421875 0.000000
0.046875 0.437500 0.000000
0.046875 0.453125 0.000000
0.046875 0.468750 0.000000
0.046875 0.484375 0.000000
0.046875 0.500000 0.000000
0.046875 0.515625 0.000000
0.046875 0.531250 0.000000
0.046875 0.546875 0.000000
0.046875 0.562500 0.000000
0.046875 0.578125 0.000000
0.046875 0.593750 0.000000
0.046875 0.609375 0.000000
0.046875 0.625000 0.000000
0.046875 0.640625 0.000000
0.046875 0.656250 0.000000
0.046875 0.671875 0.000000
0.046875 0.687500 0.000000
0.046875 0.703125 0.000000
0.046875 0.718750 0.000000
0.046875 0.734375 0.000000
0.046875 0.750000 0.000000
0.046875 0.765625 0.000000
0.046875 0.781250 0.000000
0.046875 0.796875 0.000000
0.046875 0.812500 0.000000
0.046875 0.828125 0.000000
0.046875 0.843750 0.000000
0.046875 0.859375 0.000000
0.046875 0.875000 0.000000
0.046875 0.890625 0.000000
0.046875 0.906250 0.000000
0.046875 0.921875 0.000000
0.046875 0.937500 0.000000
0.046875 0.953125 0.000000
0.046875 0.968750 0.000000
0.046875 0.984375 0.000000
0.046875 1.000000 0.000000
0.062500 0.000000 0.000000
0.062500 0.015625 0.000000
0.062500 0.031250 0.000000
0.062500 0.046875 0.000000
0.062500 0.062500 0.000000
0.062500 0.078125 0.000000
0.062500 0.093750 0.000000
0.062500 0.109375 0.000000
0.062500 0.125000 0.000000
0.062500 0.140625 0.000000
0.062500 0.156250 0.000000
0.062500 0.171875 0.000000
0.062500 0.187500 0.000000
0.062500 0.203125 0.000000
0.062500 0.218750 0.000000
0.062500 0.234375 0.000000
0.062500 0.250000 0.000000
0.062500 0.265625 0.000000
0.062500 0.281250 0.000000
0.062500 0.296875 0.000000
0.062500 0.312500 0.000000
0.062500 0.328125 0.000000
0.062500 0.343750 0.000000
0.062500 0.359375 0.000000
0.062500 0.375000 0.000000
0.062500 0.390625 0.000000
0.062500 0.406250 0.000000
0.062500 0.421875 0.000000
0.062500 0.437500 0.000000
0.062500 0.453125 0.000000
0.062500 0.468750 0.000000
0.062500 0.484375 0.000000
0.062500 0.500000 0.000000
0.062500 0.515625 0.000000
0.062500 0.531250 0.000000
0.062500 0.546875 0.000000
0.062500 0.562500 0.000000
0.062500 0.578125 0.000000
0.062500 0.593750 0.000000
0.062500 0.609375 0.000000
0.062500 0.625000 0.000000
0.062500 0.640625 0.000000
0.062500 0.656250 0.000000
0.062500 0.671875 0.000000
0.062500 0.687500 0.000000
0.062500 0.703125 0.000000
0.062500 0.718750 0.000000
0.062500 0.734375 0.000000
0.062500 0.750000 0.000000
0.062500 0.765625 0.000000
0.062500 0.781250 0.000000
0.062500 0.796875 0.000000
0.062500 0.812500 0.000000
0.062500 0.828125 0.000000
0.062500 0.843750 0.000000
0.062500 0.859375 0.000000
0.062500 0.875000 0.000000
0.062500 0.890625 0.000000
0.062500 0.906250 0.000000
0.062500 0.921875 0.000000
0.062500 0.937500 0.000000
0.062500 0.953125 0.000000
0.062500 0.968750 0.000000
0.062500 0.984375 0.000000
0.062500 1.000000 0.000000
0.078125 0.000000 0.000000
0.078125 0.015625 0.000000
0.078125 0.031250 0.000000
0.078125 0.046875 0.000000
0.078125 0.062500 0.000000
0.078125 0.078125 0.000000
0.078125 0.093750 0.000000
0.078125 0.109375 0.000000
0.078125 0.125000 0.000000
0.078125 0.140625 0.000000
0.078125 0.156250 0.000000
0.078125 0.171875 0.000000
0.078125 0.187500 0.000000
0.078125 0.203125 0.000000
0.078125 0.218750 0.000000
0.078125 0.234375 0.000000
0.078125 0.250000 0.000000
0.078125 0.265625 0.000000
0.078125 0.281250 0.000000
0.078125 0.296875 0.000000
0.078125 0.312500 0.000000
0.078125 0.328125 0.000000
0.078125 0.343750 0.000000
0.078125 0.359375 0.000000
0.078125 0.375000 0.000000
0.078125 0.390625 0.000000
0.078125 0.406250 0.000000
0.078125 0.421875 0.000000
0.078125 0.437500 0.000000
0.078125 0.453125 0.000000
0.078125 0.468750 0.000000
0.078125 0.484375 0.000000
0.078125 0.500000 0.000000
0.078125 0.515625 0.000000
0.078125 0.531250 0.000000
0.078125 0.546875 0.000000
0.078125 0.562500 0.000000
0.078125 0.578125 0.000000
0.078125 0.593750 0.000000
0.078125 0.609375 0.000000
0.078125 0.625000 0.000000
[...]
POINT_DATA 4225
SCALARS phi FLOAT 1
LOOKUP_TABLE default
0.000000000000
0.000000059605
0.000000953674
0.000004827976
0.000015258789
0.000037252903
0.000077247620
0.000143110752
0.000244140625
0.000391066074
0.000596046448
0.000872671604
0.001235961914
0.001702368259
0.002289772034
0.003017485142
0.003906250000
0.004978239536
0.006257057190
0.007767736912
0.009536743164
0.011591970921
0.013962745667
0.016679823399
0.019775390625
0.023283064365
0.027237892151
0.031676352024
0.036636352539
0.042157232761
0.048279762268
0.055046141148
0.062500000000
0.070686399937
0.079651832581
0.089444220066
0.100112915039
0.111708700657
0.124283790588
0.137891829014
0.152587890625
0.168428480625
0.185471534729
0.203776419163
0.223403930664
0.244416296482
0.266877174377
0.290851652622
0.316406250000
0.343608915806
0.372529029846
0.403237402439
0.435806274414
0.470309317112
0.506821632385
0.545419752598
0.586181640625
0.629186689854
0.674515724182
0.722250998020
0.772476196289
0.825276434422
0.880738258362
0.938949644566
1.000000000000
0.000000059605
-0.887237442609
-0.791655420597
-0.681725405437
-0.562149256745
-0.441971521546
-0.330323503784
-0.234021711089
-0.156588766524
-0.098375800402
-0.057371989391
-0.030263546328
-0.013394912456
-0.003440141974
0.002255697969
0.005603022037
0.007859180276
0.009788449183
0.011824162671
0.014199637848
0.017039286493
0.020414928562
0.024377065838
0.028970469454
0.034241022791
0.040238202499
0.047015633824
0.054630926452
0.063145320020
0.072623338205
0.083132507800
0.094743146426
0.107528207699
0.121563171888
0.136925973278
0.153696959490
0.171958881685
0.191796918166
0.213298737420
0.236554610593
0.261657588010
0.288703760077
0.317792630198
0.349027636878
0.382516874704
0.418374080717
0.456719975330
0.497684077946
0.541407160284
0.588044560687
0.637770668762
0.690785015263
0.747320589707
0.807655296110
0.872127914099
0.941160685479
1.015291944150
1.095224565948
1.181900577427
1.276621757574
1.381257573726
1.498635387761
1.633355879020
1.793730265426
0.998535215855
0.000000953674
-0.791655420597
-0.682593764096
-0.571504652209
-0.459502137610
-0.352084109981
-0.255461075752
-0.174286559430
-0.110672481228
-0.064221920087
-0.032692490036
-0.012887280863
-0.001459664427
0.004537636907
0.007391439516
0.008696614952
0.009461340786
0.010263890528
0.011403772323
0.013019911919
0.015170407750
0.017879982747
0.021164876624
0.025044059359
0.029543155594
0.034694996760
0.040538897097
0.047119630791
0.054486491682
0.062692540878
0.071794039460
0.081850032269
0.092922047574
0.105073885541
0.118371477827
0.132882809140
0.148677899062
0.165828849293
0.184409968445
0.204497994151
0.226172441309
0.249516116497
0.274615852833
0.301563538127
0.330457533595
0.361404612953
0.394522595444
0.429943905923
0.467820376973
0.508329722268
0.551684272156
0.598142795790
0.648026577747
0.701741435446
0.759808167372
0.822905207696
0.891929392425
0.968084407912
1.053013066289
1.149001834279
1.259309826857
1.388721453712
1.544512572038
1.738169964749
0.994141578674
0.000004827976
-0.681725405437
-0.571504652209
-0.465667855634
-0.364236009431
-0.270626062777
-0.188948112121
-0.122178610124
-0.071332340283
-0.035478376942
-0.012287608683
0.001230404930
0.008068913543
0.010786602151
0.011315477595
0.010960877242
0.010512138656
0.010390599021
0.010786792890
0.011764949412
0.013331684509
0.015475462418
0.018186110148
0.021462553765
0.025314526046
0.029761694431
0.034832000737
0.040560004157
0.046985498978
0.054152446865
0.062108180933
0.070902822324
0.080588857858
0.091220841366
0.102855194953
0.115550098377
0.129365465079
0.144363013101
0.160606449052
0.178161794304
0.197097895674
0.217487179022
0.239406724834
0.262939771523
0.288177787209
0.315223297117
0.344193715736
0.375226516511
0.408486185858
0.444173565422
0.482538405949
0.523896267146
0.568651345928
0.617327472918
0.670610501246
0.729406816456
0.794925046084
0.868791788401
0.953218216691
1.051244162687
1.167101575768
1.306760931027
1.478745362284
1.695279361525
0.986821234226
0.000015258789
-0.562149256745
-0.459502137610
-0.364236009431
-0.276174005136
-0.197479829468
-0.130770563360
-0.077772277810
-0.038705185637
-0.012319839494
0.003651050974
0.011897817842
0.015011532415
0.015147771750
0.013892597578
0.012284009761
0.010919989759
0.010092203415
0.009906174762
0.010370901351
0.011456504461
0.013126345427
0.015352011168
0.018118383992
0.021423799442
0.025278251662
0.029701152554
0.034719283400
0.040365132318
0.046675617608
0.053691132828
0.061454841765
0.070012163958
0.079410408361
0.089698528713
0.100926988060
0.113147732364
0.126414284911
0.140781985676
0.156308413613
0.173054046473
0.191083233235
0.210465580346
0.231277886561
0.253606805096
0.277552469488
0.303233396061
0.330793078021
0.360408823692
0.392303578043
0.426761722546
0.464150202846
0.504946830182
0.549778305793
0.599471524594
0.655123169284
0.718194717168
0.790643032048
0.875101024141
0.975128600383
1.095560655473
1.242982871192
1.426357193160
1.657771377377
0.976577758789
0.000037252903
-0.441971521546
-0.352084109981
-0.270626062777
-0.197479829468
-0.133994388473
-0.081718076337
-0.041474363021
-0.012951297570
0.005234319102
0.015168928458
0.019176630865
0.019420163729
0.017653477860
0.015134934276
0.012661496705
0.010667936045
0.009342401685
0.008727678004
0.008795391506
0.009492908320
0.010768776868
0.012583951286
0.014914899059
0.017752785736
0.021101196976
0.024973635973
0.029391307762
0.034381330632
0.039975355421
0.046208522486
0.053118682862
0.060745823771
0.069131656014
0.078319337243
0.088353319839
0.099279325723
0.111144463723
0.123997519396
0.137889463372
0.152874243729
0.169009952026
0.186360483128
0.204997848179
0.225005350827
0.246481903092
0.269547844131
0.294352739827
0.321085793156
0.349989698105
0.381379042008
0.415664728245
0.453386389008
0.495255435030
0.542212310985
0.595502773575
0.656779674255
0.728238874134
0.812800485629
0.914349203516
1.038048758715
1.190742367929
1.381437230704
1.621837451565
0.963416159153
0.000077247620
-0.330323503784
-0.255461075752
-0.188948112121
-0.130770563360
-0.081718076337
-0.042580943189
-0.013560398004
0.005973794083
0.017398039439
0.022542022814
0.023336946117
0.021523307225
0.018477968853
0.015163845702
0.012169836860
0.009797315452
0.008155932736
0.007245713496
0.007016342740
0.007404089319
0.008351390368
0.009815041068
0.011767937524
0.014197752922
0.017104524790
0.020498145721
0.024396163620
0.028821997134
0.033803542362
0.039372105690
0.045561595647
0.052407919164
0.059948543651
0.068222201909
0.077268731531
0.087129054329
0.097845315589
0.109461218430
0.122022606498
0.135578369884
0.150181775978
0.165892360940
0.182778560738
0.200921316434
0.220418960353
0.241393783188
0.264000803604
0.288439420545
0.314968836008
0.343928408075
0.375764450762
0.411065464611
0.450608391093
0.495419269917
0.546852672094
0.606695491630
0.677302048585
0.761768779053
0.864157550678
0.989775789405
1.145517298417
1.340257449660
1.585279026228
0.947342872620
0.000143110752
-0.234021711089
-0.174286559430
-0.122178610124
-0.077772277810
-0.041474363021
-0.013560398004
0.006164572139
0.018483013395
0.024669398608
0.026263427665
0.024814027695
0.021674856700
0.017890438051
0.014172216150
0.010939019006
0.008389170466
0.006576913171
0.005476604578
0.005028499782
0.005166933077
0.005834994482
0.006990376363
0.008606241897
0.010669740835
0.013179712044
0.016144349226
0.019579150179
0.023505233819
0.027948005705
0.032936118683
0.038500672949
0.044674609863
0.051492267418
0.058989079306
0.067201413195
0.076166557615
0.085922881365
0.096510205655
0.107970448311
0.120348622586
0.133694301931
0.148063698347
0.163522547990
0.180150056445
0.198044231265
0.217329025792
0.238163841980
0.260756098810
0.285377776639
0.312387108691
0.342256923476
0.375611562812
0.413274826251
0.456332036839
0.506210084873
0.564780153870
0.634488671490
0.718522648427
0.821015580240
0.947298868206
1.104200482242
1.300386843870
1.546736669943
0.928365767002
0.000244140625
-0.156588766524
-0.110672481228
-0.071332340283
-0.038705185637
-0.012951297570
0.005973794083
0.018483013395
0.025389451672
0.027810507457
0.026996960695
0.024153352204
0.020301419251
0.016210143335
0.012389234499
0.009126608306
0.006546208131
0.004666903143
0.003451083783
0.002838964264
0.002769523073
0.003191271718
0.004066382807
0.005371065253
0.007094157332
0.009235101423
0.011801895801
0.014809275802
0.018277196097
0.022229604181
0.026693466585
0.031698005790
0.037274112885
0.043453911812
0.050270463002
0.057757606632
0.065949958909
0.074883089228
0.084593922708
0.095121432368
0.106507709419
0.118799530148
0.132050575536
0.146324507287
0.161699164104
0.178272218304
0.196168729479
0.215551154280
0.236632525894
0.259693711319
0.285105898024
0.313359763871
0.345103154876
0.381189541487
0.422740045665
0.471222413467
0.528550909061
0.597211638786
0.680418124041
0.782301796283
0.908141200848
1.064631861748
1.260196178337
1.505330586649
0.906494140625
0.000391066074
-0.098375800402
-0.064221920087
-0.035478376942
-0.012319839494
0.005234319102
0.017398039439
0.024669398608
0.027810507457
0.027758363610
0.025498925373
0.021945112436
0.017849678251
0.013765633646
0.010049874056
0.006895634289
0.004377278687
0.002494345141
0.001207323965
0.000462728348
0.000208342414
0.000401028085
0.001009659828
0.002015279589
0.003409907075
0.005194864141
0.007379063219
0.009977459429
0.013009730989
0.016499188885
0.020471892377
0.024955942176
0.029980927257
0.035577509409
0.041777139409
0.048611909788
0.056114561465
0.064318675613
0.073259098761
0.082972669164
0.093499337091
0.104883802255
0.117177829816
0.130443454362
0.144757341500
0.160216652319
0.176946850790
0.195112012636
0.214928341612
0.236681781539
0.260750836203
0.287635980748
0.317997372420
0.352702946952
0.392889414306
0.440039126281
0.496076242346
0.563486005992
0.645461168975
0.746079552314
0.870516320758
1.025293805114
1.218570966931
1.460474697996
0.881738722324
0.000596046448
-0.057371989391
-0.032692490036
-0.012287608683
0.003651050974
0.015168928458
0.022542022814
0.026263427665
0.026996960695
0.025498925373
0.022526872248
0.018758779161
0.014739682201
0.010861462637
0.007371209849
0.004397806598
0.001985570250
0.000126352951
-0.001214698667
-0.002081152809
-0.002514322690
-0.002547611205
-0.002204364570
-0.001497764631
-0.000431741052
0.000997718502
0.002801197482
0.004994578220
0.007597928573
0.010634558353
0.014130235602
0.018112547000
0.022610388452
0.027653577645
0.033272588239
0.039498415061
0.046362591036
0.053897390158
0.062136267145
0.071114604333
0.080870861013
0.091448250920
0.102897111723
0.115278177824
0.128667027108
0.143160046023
0.158882348922
0.175998200709
0.194724630681
0.215349094819
0.238252248049
0.263937131455
0.293066364312
0.326509256616
0.365401118196
0.411217421275
0.465865848897
0.531799594297
0.612155519872
0.710920899603
0.833132457040
0.985111373942
1.174738158793
1.411772224072
0.854111671448
0.000872671604
-0.030263546328
-0.012887280863
0.001230404930
0.011897817842
0.019176630865
0.023336946117
0.024814027695
0.024153352204
0.021945112436
0.018758779161
0.015090298092
0.011330349490
0.007755343617
0.004536933135
0.001762748591
-0.000539029222
-0.002376770388
-0.003777158277
-0.004772425106
-0.005392487562
-0.005660808089
-0.005592753466
-0.005195444803
-0.004468390606
-0.003404458292
-0.001990932030
-0.000210528445
0.001957686458
0.004537497806
0.007554860683
0.011037331781
0.015013608477
0.019513173706
0.024566051361
0.030202685336
0.036453965821
0.043351439354
0.050927754988
0.059217418493
0.068257950743
0.078091576515
0.088767607323
0.100345728343
0.112900457004
0.126527111900
0.141349718124
0.157531382001
0.175287798185
0.194904708509
0.216760318533
0.241353896996
0.269342036905
0.301584343650
0.339200630861
0.383642039128
0.436778831766
0.501007947025
0.579383681381
0.675775142101
0.795054373909
0.943319434473
1.128157356671
1.358953163061
0.823626577854
0.001235961914
-0.013394912456
-0.001459664427
0.008068913543
0.015011532415
0.019420163729
0.021523307225
0.021674856700
0.020301419251
0.017849678251
0.014739682201
0.011330349490
0.007900756493
0.004646866319
0.001690145221
-0.000906978473
-0.003123621354
-0.004964397035
-0.006446654047
-0.007591465466
-0.008417970573
-0.008940293411
-0.009166228044
-0.009097018394
-0.008727748067
-0.008048024822
-0.007042771113
-0.005693016481
-0.003976639044
-0.001869032431
0.000656310490
0.003627299343
0.007072834661
0.011022486653
0.015506273076
0.020554552303
0.026198057315
0.032468108539
0.039397058670
0.047019041604
0.055371121150
0.064494964451
0.074439201316
0.085262675476
0.097038849056
0.109861689380
0.123853450030
0.139174858601
0.156038344667
0.174725086035
0.195606822216
0.219173583285
0.246068711302
0.277132809796
0.313458542177
0.356458507786
0.407948748388
0.470250772891
0.546315334179
0.639871563701
0.755605507646
0.899372692228
1.078450195952
1.301834968597
0.790298461914
0.001702368259
-0.003440141974
0.004537636907
0.010786602151
0.015147771750
0.017653477860
0.018477968853
0.017890438051
0.016210143335
0.013765633646
0.010861462637
0.007755343617
0.004646866319
0.001676661456
-0.001066779581
-0.003536066108
-0.005712754906
-0.007596271786
-0.009195051582
-0.010520183338
-0.011581309814
-0.012384292710
-0.012930125467
-0.013214653957
-0.013228777710
-0.012958909168
-0.012387549777
-0.011493898348
-0.010254443641
-0.008643515224
-0.006633779082
-0.004196670446
-0.001302757881
0.002077968889
0.005975899130
0.010421707405
0.015446393081
0.021081491525
0.027359510040
0.034314659751
0.041983977335
0.050408958653
0.059637861117
0.069728874521
0.080754412706
0.092806842645
0.106006045561
0.120509298801
0.136524079842
0.154324527575
0.174272453254
0.196843976277
0.222663069800
0.252543538712
0.287541217608
0.329018468272
0.378723374476
0.438886378734
0.512337489269
0.602647625339
0.714298201832
0.852883737362
1.025353179886
1.240296859243
0.754143774509
0.002289772034
0.002255697969
0.007391439516
0.011315477595
0.013892597578
0.015134934276
0.015163845702
0.014172216150
0.012389234499
0.010049874056
0.007371209849
0.004536933135
0.001690145221
-0.001066779581
-0.003667333032
-0.006073321894
-0.008266627051
-0.010241661971
-0.011999260993
-0.013542196898
-0.014872191466
-0.015988127434
-0.016885141122
-0.017554313911
-0.017982743855
-0.018153841084
-0.018047741489
-0.017641770542
-0.016910914721
-0.015828274621
-0.014365483809
-0.012493082799
-0.010180839193
-0.007398003918
-0.004113490009
-0.000295954508
0.004086244024
0.009065250694
0.014674134169
0.020947590618
0.027923022638
0.035642110937
0.044153029624
0.053513496664
0.063794900786
0.075087806634
0.087509213089
0.101212027568
0.116397323877
0.133330075204
0.152359199257
0.173942921563
0.198680657403
0.227352834446
0.260970328379
0.300835464648
0.348616853955
0.406440683556
0.477001491918
0.563695930478
0.670783593144
0.803579713142
0.968685436741
1.174262530743
0.715180397034
0.003017485142
0.005603022037
0.008696614952
0.010960877242
0.012284009761
0.012661496705
0.012169836860
0.010939019006
0.009126608306
0.006895634289
0.004397806598
0.001762748591
-0.000906978473
-0.003536066108
-0.006073321894
-0.008486733237
-0.010758023155
-0.012877593979
-0.014840344601
-0.016642517659
-0.018279520265
-0.019744556325
-0.021027879371
-0.022116489068
-0.022994126998
-0.023641462526
-0.024036390411
-0.024154386024
-0.023968881706
-0.023451640074
-0.022573107897
-0.021302738549
-0.019609272557
-0.017460964861
-0.014825744307
-0.011671285612
-0.007964966544
-0.003673673012
0.001236598118
0.006801405024
0.013058882661
0.020051232497
0.027826823730
0.036443087774
0.045970434506
0.056497475420
0.068137907127
0.081039490503
0.095395658150
0.111460397917
0.129567195227
0.150152974043
0.173788157857
0.201214180492
0.233390014485
0.271549556007
0.317272014763
0.372567812977
0.439982911343
0.522724969479
0.624815337952
0.751271598880
0.908326255694
1.103688250757
0.673427641392
0.003906250000
0.007859180276
0.009461340786
0.010512138656
0.010919989759
0.010667936045
0.009797315452
0.008389170466
0.006546208131
0.004377278687
0.001985570250
-0.000539029222
-0.003123621354
-0.005712754906
-0.008266627051
-0.010758023155
-0.013168830757
-0.015486716196
-0.017702299761
-0.019806960370
-0.021791263556
-0.023643932191
-0.025351251549
-0.026896800621
-0.028261415710
-0.029423310871
-0.030358297734
-0.031040062527
-0.031440470141
-0.031529873844
-0.031277415227
-0.030651302339
-0.029619055198
-0.028147706942
-0.026203946102
-0.023754180633
-0.020764497428
-0.017200481721
-0.013026848769
-0.008206824926
-0.002701196143
0.003533081808
0.010544846274
0.018391434497
0.027142348484
0.036884144960
0.047726880929
0.059812521330
0.073325805681
0.088508177379
0.105675504762
0.125240469488
0.147740667791
0.173873666719
0.204540484120
0.240899222254
0.284430886776
0.337019773646
0.401051217903
0.479529985745
0.576223174519
0.695832187350
0.844199195015
1.028554510526
0.628906250000
0.004978239536
0.009788449183
0.010263890528
0.010390599021
0.010092203415
0.009342401685
0.008155932736
0.006576913171
0.004666903143
0.002494345141
0.000126352951
-0.002376770388
-0.004964397035
-0.007596271786
-0.010241661971
-0.012877593979
-0.015486716196
-0.018055180184
-0.020570778735
-0.023021451831
-0.025394181678
-0.027674244674
-0.029844763032
-0.031886492298
-0.033777784893
-0.035494678423
-0.037011067420
-0.038298926503
-0.039328560879
-0.040068866246
-0.040487584476
-0.040551543996
-0.040226874526
-0.039479184950
-0.038273690444
-0.036575270570
-0.034348433670
-0.031557154349
-0.028164539679
-0.024132265664
-0.019419707780
-0.013982667418
-0.007771568998
-0.000728969336
0.007213819486
0.016141241320
0.026159447564
0.037404065765
0.050050245456
0.064325540360
0.080526302574
0.099038400741
0.120363233383
0.145150193731
0.174236957490
0.208699214966
0.249911760236
0.299623190835
0.360046872563
0.433971298936
0.524893540043
0.637180149703
0.776260702977
0.948860087694
0.581638395786
0.006257057190
0.011824162671
0.011403772323
0.010786792890
0.009906174762
0.008727678004
0.007245713496
0.005476604578
0.003451083783
0.001207323965
-0.001214698667
-0.003777158277
-0.006446654047
-0.009195051582
-0.011999260993
-0.014840344601
-0.017702299761
-0.020570778735
-0.023431916790
-0.026271360572
-0.029073529781
-0.031821106726
-0.034494727122
-0.037072836433
-0.039531674858
-0.041845357021
-0.043986017458
-0.045923998406
-0.047628061448
-0.049065608719
-0.050202902378
-0.051005272795
-0.051437306287
-0.051463002246
-0.051045887044
-0.050149068048
-0.048735205281
-0.046766370431
-0.044203752758
-0.041007158514
-0.037134234250
-0.032539324223
-0.027171847240
-0.020974047852
-0.013877939730
-0.005801214209
0.003358166976
0.013729040410
0.025476193792
0.038812116709
0.054011971045
0.071432529315
0.091535977721
0.114919654348
0.142352995916
0.174823203792
0.213591417994
0.260261514518
0.316864026415
0.385958144548
0.470755293955
0.575268422170
0.704491893734
0.864617778162
0.531647682190
0.007767736912
0.014199637848
0.013019911919
0.011764949412
0.010370901351
0.008795391506
0.007016342740
0.005028499782
0.002838964264
0.000462728348
-0.002081152809
-0.004772425106
-0.007591465466
-0.010520183338
-0.013542196898
-0.016642517659
-0.019806960370
-0.023021451831
-0.026271360572
-0.029540921099
-0.032812787864
-0.036067726899
-0.039284435977
-0.042439475173
-0.045507286183
-0.048460278933
-0.051268966043
-0.053902128681
-0.056327000408
-0.058509458292
-0.060414212533
-0.062004986979
-0.063244682952
-0.064095517789
-0.064519127196
-0.064476616848
-0.063928543460
-0.062834798484
-0.061154358438
-0.058844854189
-0.055861896819
-0.052158079421
-0.047681551627
-0.042374036004
-0.036168121776
-0.028983630494
-0.020722799097
-0.011263966799
-0.000453381814
0.011905339737
0.026064669493
0.042350220774
0.061182222057
0.083102393073
0.108807396534
0.139190261669
0.175391438162
0.218861448243
0.271437469580
0.335436612916
0.413769168511
0.510075698441
0.628892562803
0.775851303459
0.478959143162
0.009536743164
0.017039286493
0.015170407750
0.013331684509
0.011456504461
0.009492908320
0.007404089319
0.005166933077