# vtk DataFile Version 2.0
TITLE = "Quad data"
ASCII
DATASET STRUCTURED_GRID
DIMENSIONS 65 65 1
POINTS 4225 FLOAT
0.000000 0.000000 0.000000
0.000000 0.015625 0.000000
0.000000 0.031250 0.000000
0.000000 0.046875 0.000000
0.000000 0.062500 0.000000
0.000000 0.078125 0.000000
0.000000 0.093750 0.000000
0.000000 0.109375 0.000000
0.000000 0.125000 0.000000
0.000000 0.140625 0.000000
0.000000 0.156250 0.000000
0.000000 0.171875 0.000000
0.000000 0.187500 0.000000
0.000000 0.203125 0.000000
0.000000 0.218750 0.000000
0.000000 0.234375 0.000000
0.000000 0.250000 0.000000
0.000000 0.265625 0.000000
0.000000 0.281250 0.000000
0.000000 0.296875 0.000000
0.000000 0.312500 0.000000
0.000000 0.328125 0.000000
0.000000 0.343750 0.000000
0.000000 0.359375 0.000000
0.000000 0.375000 0.000000
0.000000 0.390625 0.000000
0.000000 0.406250 0.000000
0.000000 0.421875 0.000000
0.000000 0.437500 0.000000
0.000000 0.453125 0.000000
0.000000 0.468750 0.000000
0.000000 0.484375 0.000000
0.000000 0.500000 0.000000
0.000000 0.515625 0.000000
0.000000 0.531250 0.000000
0.000000 0.546875 0.000000
0.000000 0.562500 0.000000
0.000000 0.578125 0.000000
0.000000 0.593750 0.000000
0.000000 0.609375 0.000000
0.000000 0.625000 0.000000
0.000000 0.640625 0.000000
0.000000 0.656250 0.000000
0.000000 0.671875 0.000000
0.000000 0.687500 0.000000
0.000000 0.703125 0.000000
0.000000 0.718750 0.000000
0.000000 0.734375 0.000000
0.000000 0.750000 0.000000
0.000000 0.765625 0.000000
0.000000 0.781250 0.000000
0.000000 0.796875 0.000000
0.000000 0.812500 0.000000
0.000000 0.828125 0.000000
0.000000 0.843750 0.000000
0.000000 0.859375 0.000000
0.000000 0.875000 0.000000
0.000000 0.890625 0.000000
0.000000 0.906250 0.000000
0.000000 0.921875 0.000000
0.000000 0.937500 0.000000
0.000000 0.953125 0.000000
0.000000 0.968750 0.000000
0.000000 0.984375 0.000000
0.000000 1.000000 0.000000
0.015625 0.000000 0.000000
0.015625 0.015625 0.000000
0.015625 0.031250 0.000000
0.015625 0.046875 0.000000
0.015625 0.062500 0.000000
0.015625 0.078125 0.000000
0.015625 0.093750 0.000000
0.015625 0.109375 0.000000
0.015625 0.125000 0.000000
0.015625 0.140625 0.000000
0.015625 0.156250 0.000000
0.015625 0.171875 0.000000
0.015625 0.187500 0.000000
0.015625 0.203125 0.000000
0.015625 0.218750 0.000000
0.015625 0.234375 0.000000
0.015625 0.250000 0.000000
0.015625 0.265625 0.000000
0.015625 0.281250 0.000000
0.015625 0.296875 0.000000
0.015625 0.312500 0.000000
0.015625 0.328125 0.000000
0.015625 0.343750 0.000000
0.015625 0.359375 0.000000
0.015625 0.375000 0.000000
0.015625 0.390625 0.000000
0.015625 0.406250 0.000000
0.015625 0.421875 0.000000
0.015625 0.437500 0.000000
0.015625 0.453125 0.000000
0.015625 0.468750 0.000000
0.015625 0.484375 0.000000
0.015625 0.500000 0.000000
0.015625 0.515625 0.000000
0.015625 0.531250 0.000000
0.015625 0.546875 0.000000
0.015625 0.562500 0.000000
0.015625 0.578125 0.000000
0.015625 0.593750 0.000000
0.015625 0.609375 0.000000
0.015625 0.625000 0.000000
0.015625 0.640625 0.000000
0.015625 0.656250 0.000000
0.015625 0.671875 0.000000
0.015625 0.687500 0.000000
0.015625 0.703125 0.000000
0.015625 0.718750 0.000000
0.015625 0.734375 0.000000
0.015625 0.750000 0.000000
0.015625 0.765625 0.000000
0.015625 0.781250 0.000000
0.015625 0.796875 0.000000
0.015625 0.812500 0.000000
0.015625 0.828125 0.000000
0.015625 0.843750 0.000000
0.015625 0.859375 0.000000
0.015625 0.875000 0.000000
0.015625 0.890625 0.000000
0.015625 0.906250 0.000000
0.015625 0.921875 0.000000
0.015625 0.937500 0.000000
0.015625 0.953125 0.000000
0.015625 0.968750 0.000000
0.015625 0.984375 0.000000
0.015625 1.000000 0.000000
0.031250 0.000000 0.000000
0.031250 0.015625 0.000000
0.031250 0.031250 0.000000
0.031250 0.046875 0.000000
0.031250 0.062500 0.000000
0.031250 0.078125 0.000000
0.031250 0.093750 0.000000
0.031250 0.109375 0.000000
0.031250 0.125000 0.000000
0.031250 0.140625 0.000000
0.031250 0.156250 0.000000
0.031250 0.171875 0.000000
0.031250 0.187500 0.000000
0.031250 0.203125 0.000000
0.031250 0.218750 0.000000
0.031250 0.234375 0.000000
0.031250 0.250000 0.000000
0.031250 0.265625 0.000000
0.031250 0.281250 0.000000
0.031250 0.296875 0.000000
0.031250 0.312500 0.000000
0.031250 0.328125 0.000000
0.031250 0.343750 0.000000
0.031250 0.359375 0.000000
0.031250 0.375000 0.000000
0.031250 0.390625 0.000000
0.031250 0.406250 0.000000
0.031250 0.421875 0.000000
0.031250 0.437500 0.000000
0.031250 0.453125 0.000000
0.031250 0.468750 0.000000
0.031250 0.484375 0.000000
0.031250 0.500000 0.000000
0.031250 0.515625 0.000000
0.031250 0.531250 0.000000
0.031250 0.546875 0.000000
0.031250 0.562500 0.000000
0.031250 0.578125 0.000000
0.031250 0.593750 0.000000
0.031250 0.609375 0.000000
0.031250 0.625000 0.000000
0.031250 0.640625 0.000000
0.031250 0.656250 0.000000
0.031250 0.671875 0.000000
0.031250 0.687500 0.000000
0.031250 0.703125 0.000000
0.031250 0.718750 0.000000
0.031250 0.734375 0.000000
0.031250 0.750000 0.000000
0.031250 0.765625 0.000000
0.031250 0.781250 0.000000
0.031250 0.796875 0.000000
0.031250 0.812500 0.000000
0.031250 0.828125 0.000000
0.031250 0.843750 0.000000
0.031250 0.859375 0.000000
0.031250 0.875000 0.000000
0.031250 0.890625 0.000000
0.031250 0.906250 0.000000
0.031250 0.921875 0.000000
0.031250 0.937500 0.000000
0.031250 0.953125 0.000000
0.031250 0.968750 0.000000
0.031250 0.984375 0.000000
0.031250 1.000000 0.000000
0.046875 0.000000 0.000000
0.046875 0.015625 0.000000
0.046875 0.031250 0.000000
0.046875 0.046875 0.000000
0.046875 0.062500 0.000000
0.046875 0.078125 0.000000
0.046875 0.093750 0.000000
0.046875 0.109375 0.000000
0.046875 0.125000 0.000000
0.046875 0.140625 0.000000
0.046875 0.156250 0.000000
0.046875 0.171875 0.000000
0.046875 0.187500 0.000000
0.046875 0.203125 0.000000
0.046875 0.218750 0.000000
0.046875 0.234375 0.000000
0.046875 0.250000 0.000000
0.046875 0.265625 0.000000
0.046875 0.281250 0.000000
0.046875 0.296875 0.000000
0.046875 0.312500 0.000000
0.046875 0.328125 0.000000
0.046875 0.343750 0.000000
0.046875 0.359375 0.000000
0.046875 0.375000 0.000000
0.046875 0.390625 0.000000
0.046875 0.406250 0.000000
0.046875 0.421875 0.000000
0.046875 0.437500 0.000000
0.046875 0.453125 0.000000
0.046875 0.468750 0.000000
0.046875 0.484375 0.000000
0.046875 0.500000 0.000000
0.046875 0.515625 0.000000
0.046875 0.531250 0.000000
0.046875 0.546875 0.000000
0.046875 0.562500 0.000000
0.046875 0.578125 0.000000
0.046875 0.593750 0.000000
0.046875 0.609375 0.000000
0.046875 0.625000 0.000000
0.046875 0.640625 0.000000
0.046875 0.656250 0.000000
0.046875 0.671875 0.000000
0.046875 0.687500 0.000000
0.046875 0.703125 0.000000
0.046875 0.718750 0.000000
0.046875 0.734375 0.000000
0.046875 0.750000 0.000000
0.046875 0.765625 0.000000
0.046875 0.781250 0.000000
0.046875 0.796875 0.000000
0.046875 0.812500 0.000000
0.046875 0.828125 0.000000
0.046875 0.843750 0.000000
0.046875 0.859375 0.000000
0.046875 0.875000 0.000000
0.046875 0.890625 0.000000
0.046875 0.906250 0.000000
0.046875 0.921875 0.000000
0.046875 0.937500 0.000000
0.046875 0.953125 0.000000
0.046875 0.968750 0.000000
0.046875 0.984375 0.000000
0.046875 1.000000 0.000000
0.062500 0.000000 0.000000
0.062500 0.015625 0.000000
0.062500 0.031250 0.000000
0.062500 0.046875 0.000000
0.062500 0.062500 0.000000
0.062500 0.078125 0.000000
0.062500 0.093750 0.000000
0.062500 0.109375 0.000000
0.062500 0.125000 0.000000
0.062500 0.140625 0.000000
0.062500 0.156250 0.000000
0.062500 0.171875 0.000000
0.062500 0.187500 0.000000
0.062500 0.203125 0.000000
0.062500 0.218750 0.000000
0.062500 0.234375 0.000000
0.062500 0.250000 0.000000
0.062500 0.265625 0.000000
0.062500 0.281250 0.000000
0.062500 0.296875 0.000000
0.062500 0.312500 0.000000
0.062500 0.328125 0.000000
0.062500 0.343750 0.000000
0.062500 0.359375 0.000000
0.062500 0.375000 0.000000
0.062500 0.390625 0.000000
0.062500 0.406250 0.000000
0.062500 0.421875 0.000000
0.062500 0.437500 0.000000
0.062500 0.453125 0.000000
0.062500 0.468750 0.000000
0.062500 0.484375 0.000000
0.062500 0.500000 0.000000
0.062500 0.515625 0.000000
0.062500 0.531250 0.000000
0.062500 0.546875 0.000000
0.062500 0.562500 0.000000
0.062500 0.578125 0.000000
0.062500 0.593750 0.000000
0.062500 0.609375 0.000000
0.062500 0.625000 0.000000
0.062500 0.640625 0.000000
0.062500 0.656250 0.000000
0.062500 0.671875 0.000000
0.062500 0.687500 0.000000
0.062500 0.703125 0.000000
0.062500 0.718750 0.000000
0.062500 0.734375 0.000000
0.062500 0.750000 0.000000
0.062500 0.765625 0.000000
0.062500 0.781250 0.000000
0.062500 0.796875 0.000000
0.062500 0.812500 0.000000
0.062500 0.828125 0.000000
0.062500 0.843750 0.000000
0.062500 0.859375 0.000000
0.062500 0.875000 0.000000
0.062500 0.890625 0.000000
0.062500 0.906250 0.000000
0.062500 0.921875 0.000000
0.062500 0.937500 0.000000
0.062500 0.953125 0.000000
0.062500 0.968750 0.000000
0.062500 0.984375 0.000000
0.062500 1.000000 0.000000
0.078125 0.000000 0.000000
0.078125 0.015625 0.000000
0.078125 0.031250 0.000000
0.078125 0.046875 0.000000
0.078125 0.062500 0.000000
0.078125 0.078125 0.000000
0.078125 0.093750 0.000000
0.078125 0.109375 0.000000
0.078125 0.125000 0.000000
0.078125 0.140625 0.000000
0.078125 0.156250 0.000000
0.078125 0.171875 0.000000
0.078125 0.187500 0.000000
0.078125 0.203125 0.000000
0.078125 0.218750 0.000000
0.078125 0.234375 0.000000
0.078125 0.250000 0.000000
0.078125 0.265625 0.000000
0.078125 0.281250 0.000000
0.078125 0.296875 0.000000
0.078125 0.312500 0.000000
0.078125 0.328125 0.000000
0.078125 0.343750 0.000000
0.078125 0.359375 0.000000
0.078125 0.375000 0.000000
0.078125 0.390625 0.000000
0.078125 0.406250 0.000000
0.078125 0.421875 0.000000
0.078125 0.437500 0.000000
0.078125 0.453125 0.000000
0.078125 0.468750 0.000000
0.078125 0.484375 0.000000
0.078125 0.500000 0.000000
0.078125 0.515625 0.000000
0.078125 0.531250 0.000000
0.078125 0.546875 0.000000
0.078125 0.562500 0.000000
0.078125 0.578125 0.000000
0.078125 0.593750 0.000000
0.078125 0.609375 0.000000
0.078125 0.625000 0.000000
[...]
POINT_DATA 4225
SCALARS phi FLOAT 1
LOOKUP_TABLE default
0.000000000000
0.000000059605
0.000000953674
0.000004827976
0.000015258789
0.000037252903
0.000077247620
0.000143110752
0.000244140625
0.000391066074
0.000596046448
0.000872671604
0.001235961914
0.001702368259
0.002289772034
0.003017485142
0.003906250000
0.004978239536
0.006257057190
0.007767736912
0.009536743164
0.011591970921
0.013962745667
0.016679823399
0.019775390625
0.023283064365
0.027237892151
0.031676352024
0.036636352539
0.042157232761
0.048279762268
0.055046141148
0.062500000000
0.070686399937
0.079651832581
0.089444220066
0.100112915039
0.111708700657
0.124283790588
0.137891829014
0.152587890625
0.168428480625
0.185471534729
0.203776419163
0.223403930664
0.244416296482
0.266877174377
0.290851652622
0.316406250000
0.343608915806
0.372529029846
0.403237402439
0.435806274414
0.470309317112
0.506821632385
0.545419752598
0.586181640625
0.629186689854
0.674515724182
0.722250998020
0.772476196289
0.825276434422
0.880738258362
0.938949644566
1.000000000000
0.000000059605
-0.951409681378
-0.883680798712
-0.781763018277
-0.658641908572
-0.528404932512
-0.403602284219
-0.293406917594
-0.202872158253
-0.133212763550
-0.082768548795
-0.048219644635
-0.025691401398
-0.011541805545
-0.002783982614
0.002792784667
0.006693603612
0.009874730119
0.012912040155
0.016141957951
0.019762686055
0.023899088442
0.028640524729
0.034061149505
0.040230006108
0.047215700762
0.055088424925
0.063920774683
0.073788062251
0.084768427596
0.096942876890
0.110395296388
0.125212459053
0.141484029750
0.159302570784
0.178763548330
0.199965339935
0.223009243192
0.247999485718
0.275043236575
0.304250619340
0.335734727078
0.369611639547
0.406000443041
0.445023253401
0.486805242882
0.531474671750
0.579162925773
0.630004561171
0.684137359141
0.741702392874
0.802844111213
0.867710444940
0.936452944565
1.009226963253
1.086191906422
1.167511583642
1.253354724431
1.343895770901
1.439316168599
1.539806625791
1.645571437611
1.756837711958
1.873877685730
0.998535215855
0.000000953674
-0.883680798712
-0.820371346001
-0.725446003321
-0.610933690354
-0.489889104095
-0.373944677951
-0.271600870032
-0.187535760478
-0.122865533245
-0.076039073962
-0.043966273756
-0.023043767948
-0.009885743077
-0.001715822200
0.003520999476
0.007224238208
0.010283762762
0.013236412373
0.016396955736
0.019952128790
0.024020886615
0.028689521394
0.034030492475
0.040111780622
0.047001213178
0.054768330898
0.063485141499
0.073226404699
0.084069734153
0.096095633442
0.109387510852
0.124031688812
0.140117413221
0.157736864249
0.176985169101
0.197960416936
0.220763676115
0.245499014004
0.272273519623
0.301197329540
0.332383657501
0.365948828430
0.402012317596
0.440696795978
0.482128183115
0.526435709153
0.573751988294
0.624213106602
0.677958728142
0.735132224918
0.795880838240
0.860355882456
0.928713007003
1.001112540763
1.077719955804
1.158706509704
1.244250164493
1.334536950938
1.429763080638
1.530138369266
1.635892050080
1.747283041664
1.864618290929
0.994141578674
0.000004827976
-0.781763018277
-0.725446003321
-0.641241688169
-0.539785664793
-0.432612985255
-0.329999074028
-0.239449420764
-0.165089523563
-0.107895572194
-0.066485913924
-0.038119120453
-0.019601182830
-0.007931691191
-0.000650140334
0.004065409725
0.007456924153
0.010315639916
0.013120767689
0.016155429315
0.019589886218
0.023534850213
0.028072544483
0.033273349575
0.039204065986
0.045931729656
0.053525255448
0.062056098567
0.071598504009
0.082229596144
0.094029411764
0.107080915887
0.121470014209
0.137285566696
0.154619403693
0.173566344977
0.194224221966
0.216693903337
0.241079324363
0.267487520423
0.296028665227
0.326816114481
0.359966455910
0.395599566745
0.433838680150
0.474810462398
0.518645103177
0.565476422086
0.615441995352
0.668683308190
0.725345940066
0.785579792946
0.849539376598
0.917384171049
0.989279095472
1.065395127082
1.145910136172
1.231010039911
1.320890436495
1.415758976158
1.515838870937
1.621374136414
1.732637285287
1.849939740112
0.986821234226
0.000015258789
-0.658641908572
-0.610933690354
-0.539785664793
-0.454161090843
-0.363772673685
-0.277268082274
-0.200959875068
-0.138312741604
-0.090138529582
-0.055263440597
-0.031369072706
-0.015756718832
-0.005891614094
0.000305550954
0.004375787973
0.007371433062
0.009965247609
0.012567425947
0.015423369105
0.018683858275
0.022449993447
0.026799369116
0.031800096529
0.037517759559
0.044018623625
0.051371015888
0.059645879799
0.068916984411
0.079261000747
0.090757532116
0.103489131373
0.117541316692
0.133002589615
0.149964456505
0.168521453804
0.188771177341
0.210814316016
0.234754690258
0.260699295836
0.288758353730
0.319045366951
0.351677185460
0.386774080571
0.424459830637
0.464861820226
0.508111155661
0.554342800570
0.603695736197
0.656313152740
0.712342679994
0.771936668505
0.835252536482
0.902453203550
0.973707640856
1.049191579229
1.129088434781
1.213590536485
1.302900774489
1.397234829327
1.496824176666
1.601920040018
1.712798246513
1.829764211248
0.976577758789
0.000037252903
-0.528404932512
-0.489889104095
-0.432612985255
-0.363772673685
-0.291158671301
-0.221702790341
-0.160460975513
-0.110203105546
-0.071570275174
-0.043610639712
-0.024454516320
-0.011927711013
-0.003988128945
0.001040501605
0.004402380225
0.006949668062
0.009230212637
0.011581571442
0.014209557903
0.017244604685
0.020777852640
0.024882167874
0.029623397600
0.035065951557
0.041275375456
0.048319457288
0.056268672138
0.065196351334
0.075178746339
0.086295057136
0.098627451524
0.112261084595
0.127284121414
0.143787763827
0.161866281793
0.181617049529
0.203140586849
0.226540606220
0.251924066182
0.279401231978
0.309085744437
0.341094698410
0.375548732357
0.412572131088
0.452292944149
0.494843122988
0.540358680869
0.588979880614
0.640851456705
0.696122880237
0.754948677854
0.817488819353
0.883909193452
0.954382197663
1.029087476684
1.108212854470
1.191955517442
1.280523517607
1.374137666404
1.473033863473
1.577465807171
1.687707789397
1.804056786602
0.963416159153
0.000077247620
-0.403602284219
-0.373944677951
-0.329999074028
-0.277268082274
-0.221702790341
-0.168594222679
-0.121797524597
-0.083419593474
-0.053940041170
-0.032621179038
-0.018024194278
-0.008477932558
-0.002412495859
0.001462291247
0.004106436769
0.006180556572
0.008113070065
0.010172173982
0.012525952528
0.015285505563
0.018532560856
0.022335553535
0.026758237034
0.031863952868
0.037717599653
0.044386480504
0.051940645410
0.060453023886
0.069999478386
0.080658831878
0.092512889827
0.105646463735
0.120147398572
0.136106604900
0.153618096082
0.172779030913
0.193689762153
0.216453891519
0.241178331916
0.267973377812
0.296952784914
0.328233860563
0.361937566539
0.398188636431
0.437115710144
0.478851488788
0.523532913970
0.571301376510
0.622302960934
0.676688733725
0.734615085522
0.796244140105
0.861744246469
0.931290574326
1.005065837963
1.083261177723
1.166077230704
1.253725418563
1.346429462744
1.444427091567
1.547971807310
1.657334409559
1.772803722595
0.947342872620
0.000143110752
-0.293406917594
-0.271600870032
-0.239449420764
-0.200959875068
-0.160460975513
-0.121797524597
-0.087766954155
-0.059892934767
-0.038514109839
-0.023082946970
-0.012541670228
-0.005663530376
-0.001295562534
0.001511639450
0.003467358565
0.005063305178
0.006622656530
0.008352546334
0.010387891522
0.012822834787
0.015730875649
0.019176594709
0.023221933898
0.027929312341
0.033363065301
0.039590065914
0.046679979465
0.054705365672
0.063741724304
0.073867523182
0.085164223458
0.097716307463
0.111611310948
0.126939860396
0.143795715830
0.162275819537
0.182480351207
0.204512790172
0.228479985524
0.254492235135
0.282663374757
0.313110878692
0.345955973763
0.381323768751
0.419343401868
0.460148209427
0.503875919556
0.550668875672
0.600674295453
0.654044572404
0.710937628580
0.771517328899
0.835953969395
0.904424853719
0.977114973545
1.054217808317
1.135936256029
1.222483696057
1.314085162055
1.410978560068
1.513415796742
1.621663584205
1.736003585708
0.928365767002
0.000244140625
-0.202872158253
-0.187535760478
-0.165089523563
-0.138312741604
-0.110203105546
-0.083419593475
-0.059892934767
-0.040669508589
-0.025973466588
-0.015414297645
-0.008247640674
-0.003611923207
-0.000696607295
0.001167946903
0.002485257962
0.003608480261
0.004774509330
0.006140457962
0.007814105442
0.009875742874
0.012392162298
0.015424807279
0.019034142408
0.023281824741
0.028231710285
0.033950292927
0.040506888444
0.047973713609
0.056425926859
0.065941657876
0.076602036604
0.088491225539
0.101696456708
0.116308073961
0.132419581038
0.150127695888
0.169532411813
0.190737066151
0.213848417343
0.238976731412
0.266235879089
0.295743445029
0.327620850880
0.361993494249
0.398990906071
0.438746929285
0.481399922370
0.527092991899
0.575974259092
0.628197166208
0.683920829587
0.743310447107
0.806537768567
0.873781637803
0.945228614531
1.021073681061
1.101521032601
1.186784937613
1.277090633781
1.372675192889
1.473788244087
1.580692396653
1.693663171925
0.906494140625
0.000391066074
-0.133212763550
-0.122865533245
-0.107895572194
-0.090138529582
-0.071570275174
-0.053940041170
-0.038514109839
-0.025973466588
-0.016455348559
-0.009690637187
-0.005176247354
-0.002331430242
-0.000608833137
0.000446243977
0.001179293369
0.001837104266
0.002590372494
0.003557860326
0.004826560933
0.006466167489
0.008538343305
0.011102128126
0.014216841651
0.017943531666
0.022345650565
0.027489355918
0.033443642393
0.040280404701
0.048074475907
0.056903659480
0.066848762297
0.077993631356
0.090425195298
0.104233511382
0.119511818388
0.136356595991
0.154867631238
0.175148092857
0.197304614279
0.221447386405
0.247690261326
0.276150868421
0.306950744490
0.340215479870
0.376074882806
0.414663164729
0.456119149511
0.500586510264
0.548214037735
0.599155944880
0.653572212638
0.711628982201
0.773498998955
0.839362112488
0.909405835023
0.983825956727
1.062827209449
1.146623959468
1.235440893670
1.329513642117
1.429089255639
1.534426436952
1.645795422044
0.881738722324
0.000596046448
-0.082768548795
-0.076039073962
-0.066485913924
-0.055263440597
-0.043610639712
-0.032621179038
-0.023082946970
-0.015414297645
-0.009690637187
-0.005731130256
-0.003207279932
-0.001741285758
-0.000975876271
-0.000611519797
-0.000416760436
-0.000221532122
0.000097134728
0.000630371525
0.001450205799
0.002618703026
0.004193829726
0.006232879434
0.008794319380
0.011938718213
0.015729186172
0.020231577562
0.025514586756
0.031649801018
0.038711738490
0.046777883282
0.055928722499
0.066247787177
0.077821698067
0.090740216892
0.105096303599
0.120986180210
0.138509401916
0.157768936179
0.178871250716
0.201926411390
0.227048191159
0.254354191439
0.283965977432
0.316009229180
0.350613910384
0.387914457281
0.428049990175
0.471164550528
0.517407366755
0.566933152106
0.619902438042
0.676481946327
0.736845002368
0.801171990975
0.869650853224
0.942477619089
1.019856964368
1.102002771740
1.189138664503
1.281498468526
1.379326545859
1.482877937615
1.592418261876
0.854111671448
0.000872671604
-0.048219644635
-0.043966273756
-0.038119120453
-0.031369072706
-0.024454516320
-0.018024194278
-0.012541670228
-0.008247640674
-0.005176247354
-0.003207279932
-0.002131370969
-0.001708980516
-0.001712231749
-0.001947167181
-0.002259886345
-0.002532479954
-0.002674408122
-0.002613306072
-0.002287309112
-0.001639537133
-0.000614549988
0.000843731556
0.002793154412
0.005293908127
0.008408805668
0.012203420663
0.016746160418
0.022108313224
0.028364087428
0.035590649785
0.043868166320
0.053279847175
0.063911996252
0.075854066284
0.089198719909
0.104041897362
0.120482891469
0.138624430705
0.158572771173
0.180437798485
0.204333140661
0.230376293268
0.258688758230
0.289396197875
0.322628605977
0.358520497727
0.397211120761
0.438844689484
0.483570645033
0.531543943187
0.582925372309
0.637881902887
0.696587069317
0.759221382938
0.825972772915
0.897037047923
0.972618366687
1.052929699069
1.138193252104
1.228640828088
1.324514076787
1.426064604339
1.533553911412
0.823626577854
0.001235961914
-0.025691401398
-0.023043767948
-0.019601182830
-0.015756718832
-0.011927711013
-0.008477932558
-0.005663530376
-0.003611923207
-0.002331430242
-0.001741285758
-0.001708980516
-0.002083988817
-0.002721658591
-0.003495895397
-0.004302629402
-0.005057450898
-0.005690643825
-0.006141894409
-0.006355870730
-0.006279039369
-0.005857611459
-0.005036329289
-0.003757798739
-0.001962140241
0.000413190612
0.003433499529
0.007166912966
0.011684423082
0.017059928650
0.023370276594
0.030695306349
0.039117898168
0.048724026156
0.059602816633
0.071846612450
0.085551043885
0.100815106809
0.117741248872
0.136435464553
0.157007399982
0.179570468578
0.204241978635
0.231143274103
0.260399889942
0.292141723531
0.326503223724
0.363623599206
0.403647047839
0.446723008613
0.493006437640
0.542658109231
0.595844942446
0.652740352458
0.713524624502
0.778385306008
0.847517609536
0.921124815431
0.999418658793
1.082619680895
1.170957521503
1.264671127250
1.364008854012
1.469228450227
0.790298461914
0.001702368259
-0.011541805545
-0.009885743077
-0.007931691191
-0.005891614094
-0.003988128945
-0.002412495859
-0.001295562534
-0.000696607295
-0.000608833137
-0.000975876271
-0.001712231749
-0.002721658591
-0.003910194993
-0.005193052186
-0.006496479005
-0.007756445750
-0.008915908696
-0.009921896969
-0.010723074172
-0.011267975066
-0.011503859241
-0.011376024673
-0.010827420583
-0.009798435462
-0.008226778722
-0.006047408227
-0.003192478182
0.000408705364
0.004829727505
0.010147108898
0.016440353139
0.023791998032
0.032287671467
0.042016152519
0.053069438413
0.065542817972
0.079534952236
0.095147962999
0.112487530030
0.131662997872
0.152787493145
0.175978053380
0.201355768465
0.229045935909
0.259178231108
0.291886893913
0.327310932744
0.365594347439
0.406886371894
0.451341737217
0.499120955711
0.550390625247
0.605323752597
0.664100092904
0.726906500615
0.793937284943
0.865394560253
0.941488578962
1.022438032027
1.108470300535
1.199821642336
1.296737301025
1.399471531740
0.754143774509
0.002289772034
-0.002783982614
-0.001715822200
-0.000650140334
0.000305550954
0.001040501605
0.001462291247
0.001511639450
0.001167946903
0.000446243977
-0.000611519797
-0.001947167181
-0.003495895397
-0.005193052186
-0.006977715718
-0.008793651844
-0.010588612495
-0.012312892348
-0.013917790383
-0.015354316633
-0.016572249325
-0.017519513140
-0.018141797475
-0.018382331440
-0.018181750990
-0.017478015523
-0.016206348769
-0.014299190276
-0.011686150459
-0.008293965656
-0.004046451296
0.001135547952
0.007334211843
0.014634802714
0.023125728751
0.032898612986
0.044048368658
0.056673281601
0.070875100362
0.086759134796
0.104434363942
0.124013554031
0.145613387527
0.169354604157
0.195362154908
0.223765369983
0.254698141714
0.288299123330
0.324711944396
0.364085443491
0.406573918380
0.452337393454
0.501541903502
0.554359792016
0.610970020993
0.671558487791
0.736318342885
0.805450300560
0.879162932840
0.957672935658
1.041205355904
1.129993769088
1.224280400531
1.324316188365
0.715180397034
0.003017485142
0.002792784667
0.003520999476
0.004065409725
0.004375787973
0.004402380225
0.004106436769
0.003467358565
0.002485257962
0.001179293369
-0.000416760436
-0.002259886345
-0.004302629402
-0.006496479005
-0.008793651844
-0.011147564082
-0.013512473329
-0.015842746999
-0.018092079303
-0.020212827085
-0.022155518015
-0.023868517601
-0.025297815481
-0.026386889996
-0.027076619061
-0.027305215993
-0.027008177539
-0.026118236975
-0.024565318448
-0.022276490425
-0.019175916994
-0.015184806123
-0.010221354177
-0.004200686053
0.002965209670
0.011367551167
0.021100840017
0.032262944690
0.044955191549
0.059282464066
0.075353310970
0.093280064121
0.113178966874
0.135170313768
0.159378602345
0.185932697897
0.214966011883
0.246616694668
0.281027843062
0.318347722906
0.358730006614
0.402334025114
0.449325032997
0.499874484929
0.554160320406
0.612367252831
0.674687057685
0.741318853372
0.812469367309
0.888353179278
0.969192934286
1.055219518456
1.146672194153
1.243798694529
0.673427641392
0.003906250000
0.006693603612
0.007224238208
0.007456924153
0.007371433062
0.006949668062
0.006180556572
0.005063305178
0.003608480261
0.001837104266
-0.000221532122
-0.002532479954
-0.005057450898
-0.007756445750
-0.010588612495
-0.013512473329
-0.016485750195
-0.019465006801
-0.022405261309
-0.025259651851
-0.027979181519
-0.030512537493
-0.032805966256
-0.034803185894
-0.036445320432
-0.037670846047
-0.038415542916
-0.038612449063
-0.038191814108
-0.037081051587
-0.035204688953
-0.032484314527
-0.028838520764
-0.024182843255
-0.018429694860
-0.011488294410
-0.003264589373
0.006338828108
0.017422812451
0.030091763779
0.044453735638
0.060620551993
0.078707934169
0.098835638449
0.121127605000
0.145712118738
0.172721982704
0.202294704374
0.234572695150
0.269703483065
0.307839938371
0.349140511276
0.393769480558
0.441897211136
0.493700417931
0.549362432538
0.609073468370
0.673030879213
0.741439405585
0.814511403157
0.892467047980
0.975534514498
1.063950124460
1.157958467796
0.628906250000
0.004978239536
0.009874730119
0.010283762762
0.010315639916
0.009965247609
0.009230212637
0.008113070065
0.006622656530
0.004774509330
0.002590372494
0.000097134728
-0.002674408122
-0.005690643825
-0.008915908696
-0.012312892348
-0.015842746999
-0.019465006801
-0.023137417313
-0.026815746450
-0.030453615502
-0.034002363554
-0.037410943878
-0.040625844819
-0.043591026995
-0.046247870158
-0.048535125141
-0.050388867924
-0.051742453999
-0.052526471826
-0.052668694536
-0.052094029179
-0.050724462924
-0.048479005637
-0.045273628277
-0.041021196573
-0.035631399416
-0.029010671412
-0.021062109021
-0.011685379702
-0.000776623449
0.011771653857
0.026070695933
0.042235620982
0.060385556600
0.080643785246
0.103137900761
0.127999976350
0.155366744297
0.185379787503
0.218185742717
0.253936515023
0.292789502761
0.334907831649
0.380460596297
0.429623106798
0.482577137437
0.539511174012
0.600620655836
0.666108208208
0.736183861280
0.811065251756
0.890977805004
0.976154896760
1.066837995831
0.581638395786
0.006257057190
0.012912040155
0.013236412373
0.013120767689
0.012567425947
0.011581571442
0.010172173982
0.008352546334
0.006140457962
0.003557860326
0.000630371525
-0.002613306072
-0.006141894409
-0.009921896969
-0.013917790383
-0.018092079303
-0.022405261309
-0.026815746450
-0.031279763573
-0.035751271452
-0.040181881565
-0.044520792812
-0.048714735582
-0.052707922004
-0.056441999740
-0.059856007365
-0.062886329998
-0.065466654245
-0.067527921747
-0.068998280732
-0.069803035042
-0.069864590094
-0.069102395281
-0.067432882295
-0.064769398853
-0.061022137311
-0.056098057634
-0.049900804189
-0.042330615808
-0.033284228582
-0.022654770822
-0.010331649649
0.003799571323
0.019857303714
0.037964075965
0.058246685195
0.080836359592
0.105868931526
0.133485021362
0.163830231759
0.197055351965
0.233316571297
0.272775700648
0.315600400420
0.361964412899
0.412047796621
0.466037159948
0.524125890814
0.586514379516
0.653410231667
0.725028468922
0.801591716043
0.883330374110
0.970482781307
0.531647682190
0.007767736912
0.016141957951
0.016396955736
0.016155429315
0.015423369105
0.014209557903
0.012525952528
0.010387891522
0.007814105442
0.004826560933
0.001450205799
-0.002287309112
-0.006355870730
-0.010723074172
-0.015354316633
-0.020212827085
-0.025259651851
-0.030453615502
-0.035751271452
-0.041106850756
-0.046472212884
-0.051796799364
-0.057027589779
-0.062109059179
-0.066983136036
-0.071589160001
-0.075863838885
-0.079741204370
-0.083152566017
-0.086026463108
-0.088288613908
-0.089861861867
-0.090666118329
-0.090618301253
-0.089632269485
-0.087618752085
-0.084485272213
-0.080136065073
-0.074471989412
-0.067390432063
-0.058785205021
-0.048546434573
-0.036560442007
-0.022709615451
-0.006872272480
0.011077486843
0.031269936696
0.053839892094
0.078926885296
0.106675351748
0.137234825094
0.170760140490
0.207411645187
0.247355414996
0.290763474990
0.337814022438
0.388691649786
0.443587565365
0.502699809519
0.566233464106
0.634400853803
0.707421738380
0.785523496096
0.868941299524
0.478959143162
0.009536743164
0.019762686055
0.019952128790
0.019589886218