# vtk DataFile Version 2.0
TITLE = "Quad data"
ASCII
DATASET STRUCTURED_GRID
DIMENSIONS 201 201 1
POINTS 40401 FLOAT
-1.000000 -1.000000 0.000000
-1.000000 -0.990000 0.000000
-1.000000 -0.980000 0.000000
-1.000000 -0.970000 0.000000
-1.000000 -0.960000 0.000000
-1.000000 -0.950000 0.000000
-1.000000 -0.940000 0.000000
-1.000000 -0.930000 0.000000
-1.000000 -0.920000 0.000000
-1.000000 -0.910000 0.000000
-1.000000 -0.900000 0.000000
-1.000000 -0.890000 0.000000
-1.000000 -0.880000 0.000000
-1.000000 -0.870000 0.000000
-1.000000 -0.860000 0.000000
-1.000000 -0.850000 0.000000
-1.000000 -0.840000 0.000000
-1.000000 -0.830000 0.000000
-1.000000 -0.820000 0.000000
-1.000000 -0.810000 0.000000
-1.000000 -0.800000 0.000000
-1.000000 -0.790000 0.000000
-1.000000 -0.780000 0.000000
-1.000000 -0.770000 0.000000
-1.000000 -0.760000 0.000000
-1.000000 -0.750000 0.000000
-1.000000 -0.740000 0.000000
-1.000000 -0.730000 0.000000
-1.000000 -0.720000 0.000000
-1.000000 -0.710000 0.000000
-1.000000 -0.700000 0.000000
-1.000000 -0.690000 0.000000
-1.000000 -0.680000 0.000000
-1.000000 -0.670000 0.000000
-1.000000 -0.660000 0.000000
-1.000000 -0.650000 0.000000
-1.000000 -0.640000 0.000000
-1.000000 -0.630000 0.000000
-1.000000 -0.620000 0.000000
-1.000000 -0.610000 0.000000
-1.000000 -0.600000 0.000000
-1.000000 -0.590000 0.000000
-1.000000 -0.580000 0.000000
-1.000000 -0.570000 0.000000
-1.000000 -0.560000 0.000000
-1.000000 -0.550000 0.000000
-1.000000 -0.540000 0.000000
-1.000000 -0.530000 0.000000
-1.000000 -0.520000 0.000000
-1.000000 -0.510000 0.000000
-1.000000 -0.500000 0.000000
-1.000000 -0.490000 0.000000
-1.000000 -0.480000 0.000000
-1.000000 -0.470000 0.000000
-1.000000 -0.460000 0.000000
-1.000000 -0.450000 0.000000
-1.000000 -0.440000 0.000000
-1.000000 -0.430000 0.000000
-1.000000 -0.420000 0.000000
-1.000000 -0.410000 0.000000
-1.000000 -0.400000 0.000000
-1.000000 -0.390000 0.000000
-1.000000 -0.380000 0.000000
-1.000000 -0.370000 0.000000
-1.000000 -0.360000 0.000000
-1.000000 -0.350000 0.000000
-1.000000 -0.340000 0.000000
-1.000000 -0.330000 0.000000
-1.000000 -0.320000 0.000000
-1.000000 -0.310000 0.000000
-1.000000 -0.300000 0.000000
-1.000000 -0.290000 0.000000
-1.000000 -0.280000 0.000000
-1.000000 -0.270000 0.000000
-1.000000 -0.260000 0.000000
-1.000000 -0.250000 0.000000
-1.000000 -0.240000 0.000000
-1.000000 -0.230000 0.000000
-1.000000 -0.220000 0.000000
-1.000000 -0.210000 0.000000
-1.000000 -0.200000 0.000000
-1.000000 -0.190000 0.000000
-1.000000 -0.180000 0.000000
-1.000000 -0.170000 0.000000
-1.000000 -0.160000 0.000000
-1.000000 -0.150000 0.000000
-1.000000 -0.140000 0.000000
-1.000000 -0.130000 0.000000
-1.000000 -0.120000 0.000000
-1.000000 -0.110000 0.000000
-1.000000 -0.100000 0.000000
-1.000000 -0.090000 0.000000
-1.000000 -0.080000 0.000000
-1.000000 -0.070000 0.000000
-1.000000 -0.060000 0.000000
-1.000000 -0.050000 0.000000
-1.000000 -0.040000 0.000000
-1.000000 -0.030000 0.000000
-1.000000 -0.020000 0.000000
-1.000000 -0.010000 0.000000
-1.000000 0.000000 0.000000
-1.000000 0.010000 0.000000
-1.000000 0.020000 0.000000
-1.000000 0.030000 0.000000
-1.000000 0.040000 0.000000
-1.000000 0.050000 0.000000
-1.000000 0.060000 0.000000
-1.000000 0.070000 0.000000
-1.000000 0.080000 0.000000
-1.000000 0.090000 0.000000
-1.000000 0.100000 0.000000
-1.000000 0.110000 0.000000
-1.000000 0.120000 0.000000
-1.000000 0.130000 0.000000
-1.000000 0.140000 0.000000
-1.000000 0.150000 0.000000
-1.000000 0.160000 0.000000
-1.000000 0.170000 0.000000
-1.000000 0.180000 0.000000
-1.000000 0.190000 0.000000
-1.000000 0.200000 0.000000
-1.000000 0.210000 0.000000
-1.000000 0.220000 0.000000
-1.000000 0.230000 0.000000
-1.000000 0.240000 0.000000
-1.000000 0.250000 0.000000
-1.000000 0.260000 0.000000
-1.000000 0.270000 0.000000
-1.000000 0.280000 0.000000
-1.000000 0.290000 0.000000
-1.000000 0.300000 0.000000
-1.000000 0.310000 0.000000
-1.000000 0.320000 0.000000
-1.000000 0.330000 0.000000
-1.000000 0.340000 0.000000
-1.000000 0.350000 0.000000
-1.000000 0.360000 0.000000
-1.000000 0.370000 0.000000
-1.000000 0.380000 0.000000
-1.000000 0.390000 0.000000
-1.000000 0.400000 0.000000
-1.000000 0.410000 0.000000
-1.000000 0.420000 0.000000
-1.000000 0.430000 0.000000
-1.000000 0.440000 0.000000
-1.000000 0.450000 0.000000
-1.000000 0.460000 0.000000
-1.000000 0.470000 0.000000
-1.000000 0.480000 0.000000
-1.000000 0.490000 0.000000
-1.000000 0.500000 0.000000
-1.000000 0.510000 0.000000
-1.000000 0.520000 0.000000
-1.000000 0.530000 0.000000
-1.000000 0.540000 0.000000
-1.000000 0.550000 0.000000
-1.000000 0.560000 0.000000
-1.000000 0.570000 0.000000
-1.000000 0.580000 0.000000
-1.000000 0.590000 0.000000
-1.000000 0.600000 0.000000
-1.000000 0.610000 0.000000
-1.000000 0.620000 0.000000
-1.000000 0.630000 0.000000
-1.000000 0.640000 0.000000
-1.000000 0.650000 0.000000
-1.000000 0.660000 0.000000
-1.000000 0.670000 0.000000
-1.000000 0.680000 0.000000
-1.000000 0.690000 0.000000
-1.000000 0.700000 0.000000
-1.000000 0.710000 0.000000
-1.000000 0.720000 0.000000
-1.000000 0.730000 0.000000
-1.000000 0.740000 0.000000
-1.000000 0.750000 0.000000
-1.000000 0.760000 0.000000
-1.000000 0.770000 0.000000
-1.000000 0.780000 0.000000
-1.000000 0.790000 0.000000
-1.000000 0.800000 0.000000
-1.000000 0.810000 0.000000
-1.000000 0.820000 0.000000
-1.000000 0.830000 0.000000
-1.000000 0.840000 0.000000
-1.000000 0.850000 0.000000
-1.000000 0.860000 0.000000
-1.000000 0.870000 0.000000
-1.000000 0.880000 0.000000
-1.000000 0.890000 0.000000
-1.000000 0.900000 0.000000
-1.000000 0.910000 0.000000
-1.000000 0.920000 0.000000
-1.000000 0.930000 0.000000
-1.000000 0.940000 0.000000
-1.000000 0.950000 0.000000
-1.000000 0.960000 0.000000
-1.000000 0.970000 0.000000
-1.000000 0.980000 0.000000
-1.000000 0.990000 0.000000
-1.000000 1.000000 0.000000
-0.990000 -1.000000 0.000000
-0.990000 -0.990000 0.000000
-0.990000 -0.980000 0.000000
-0.990000 -0.970000 0.000000
-0.990000 -0.960000 0.000000
-0.990000 -0.950000 0.000000
-0.990000 -0.940000 0.000000
-0.990000 -0.930000 0.000000
-0.990000 -0.920000 0.000000
-0.990000 -0.910000 0.000000
-0.990000 -0.900000 0.000000
-0.990000 -0.890000 0.000000
-0.990000 -0.880000 0.000000
-0.990000 -0.870000 0.000000
-0.990000 -0.860000 0.000000
-0.990000 -0.850000 0.000000
-0.990000 -0.840000 0.000000
-0.990000 -0.830000 0.000000
-0.990000 -0.820000 0.000000
-0.990000 -0.810000 0.000000
-0.990000 -0.800000 0.000000
-0.990000 -0.790000 0.000000
-0.990000 -0.780000 0.000000
-0.990000 -0.770000 0.000000
-0.990000 -0.760000 0.000000
-0.990000 -0.750000 0.000000
-0.990000 -0.740000 0.000000
-0.990000 -0.730000 0.000000
-0.990000 -0.720000 0.000000
-0.990000 -0.710000 0.000000
-0.990000 -0.700000 0.000000
-0.990000 -0.690000 0.000000
-0.990000 -0.680000 0.000000
-0.990000 -0.670000 0.000000
-0.990000 -0.660000 0.000000
-0.990000 -0.650000 0.000000
-0.990000 -0.640000 0.000000
-0.990000 -0.630000 0.000000
-0.990000 -0.620000 0.000000
-0.990000 -0.610000 0.000000
-0.990000 -0.600000 0.000000
-0.990000 -0.590000 0.000000
-0.990000 -0.580000 0.000000
-0.990000 -0.570000 0.000000
-0.990000 -0.560000 0.000000
-0.990000 -0.550000 0.000000
-0.990000 -0.540000 0.000000
-0.990000 -0.530000 0.000000
-0.990000 -0.520000 0.000000
-0.990000 -0.510000 0.000000
-0.990000 -0.500000 0.000000
-0.990000 -0.490000 0.000000
-0.990000 -0.480000 0.000000
-0.990000 -0.470000 0.000000
-0.990000 -0.460000 0.000000
-0.990000 -0.450000 0.000000
-0.990000 -0.440000 0.000000
-0.990000 -0.430000 0.000000
-0.990000 -0.420000 0.000000
-0.990000 -0.410000 0.000000
-0.990000 -0.400000 0.000000
-0.990000 -0.390000 0.000000
-0.990000 -0.380000 0.000000
-0.990000 -0.370000 0.000000
-0.990000 -0.360000 0.000000
-0.990000 -0.350000 0.000000
-0.990000 -0.340000 0.000000
-0.990000 -0.330000 0.000000
-0.990000 -0.320000 0.000000
-0.990000 -0.310000 0.000000
-0.990000 -0.300000 0.000000
-0.990000 -0.290000 0.000000
-0.990000 -0.280000 0.000000
-0.990000 -0.270000 0.000000
-0.990000 -0.260000 0.000000
-0.990000 -0.250000 0.000000
-0.990000 -0.240000 0.000000
-0.990000 -0.230000 0.000000
-0.990000 -0.220000 0.000000
-0.990000 -0.210000 0.000000
-0.990000 -0.200000 0.000000
-0.990000 -0.190000 0.000000
-0.990000 -0.180000 0.000000
-0.990000 -0.170000 0.000000
-0.990000 -0.160000 0.000000
-0.990000 -0.150000 0.000000
-0.990000 -0.140000 0.000000
-0.990000 -0.130000 0.000000
-0.990000 -0.120000 0.000000
-0.990000 -0.110000 0.000000
-0.990000 -0.100000 0.000000
-0.990000 -0.090000 0.000000
-0.990000 -0.080000 0.000000
-0.990000 -0.070000 0.000000
-0.990000 -0.060000 0.000000
-0.990000 -0.050000 0.000000
-0.990000 -0.040000 0.000000
-0.990000 -0.030000 0.000000
-0.990000 -0.020000 0.000000
-0.990000 -0.010000 0.000000
-0.990000 0.000000 0.000000
-0.990000 0.010000 0.000000
-0.990000 0.020000 0.000000
-0.990000 0.030000 0.000000
-0.990000 0.040000 0.000000
-0.990000 0.050000 0.000000
-0.990000 0.060000 0.000000
-0.990000 0.070000 0.000000
-0.990000 0.080000 0.000000
-0.990000 0.090000 0.000000
-0.990000 0.100000 0.000000
-0.990000 0.110000 0.000000
-0.990000 0.120000 0.000000
-0.990000 0.130000 0.000000
-0.990000 0.140000 0.000000
-0.990000 0.150000 0.000000
-0.990000 0.160000 0.000000
-0.990000 0.170000 0.000000
-0.990000 0.180000 0.000000
-0.990000 0.190000 0.000000
-0.990000 0.200000 0.000000
-0.990000 0.210000 0.000000
-0.990000 0.220000 0.000000
-0.990000 0.230000 0.000000
-0.990000 0.240000 0.000000
-0.990000 0.250000 0.000000
-0.990000 0.260000 0.000000
-0.990000 0.270000 0.000000
-0.990000 0.280000 0.000000
-0.990000 0.290000 0.000000
-0.990000 0.300000 0.000000
-0.990000 0.310000 0.000000
-0.990000 0.320000 0.000000
-0.990000 0.330000 0.000000
-0.990000 0.340000 0.000000
-0.990000 0.350000 0.000000
-0.990000 0.360000 0.000000
-0.990000 0.370000 0.000000
-0.990000 0.380000 0.000000
-0.990000 0.390000 0.000000
-0.990000 0.400000 0.000000
-0.990000 0.410000 0.000000
-0.990000 0.420000 0.000000
-0.990000 0.430000 0.000000
[...]
POINT_DATA 40401
SCALARS phi FLOAT 1
LOOKUP_TABLE default
0.000000000000
0.000000000000
0.000000000000
0.000000000000
0.000000000000
0.000000000000
0.000000000000
0.000000000000
0.000000000000
0.000000000000
0.000000000000
0.000000000000
0.000000000000
0.000000000000
0.000000000000
0.000000000000
0.000000000000
0.000000000000
0.000000000000
0.000000000000
0.000000000000
0.000000000000
0.000000000000
0.000000000000
0.000000000000
0.000000000000
0.000000000000
0.000000000000
0.000000000000
0.000000000000
0.000000000000
0.000000000000
0.000000000000
0.000000000000
0.000000000000
0.000000000000
0.000000000000
0.000000000000
0.000000000000
0.000000000000
0.000000000000
0.000000000000
0.000000000000
0.000000000000
0.000000000000
0.000000000000
0.000000000000
0.000000000000
0.000000000000
0.000000000000
0.000000000000
0.000000000000
0.000000000000
0.000000000000
0.000000000000
0.000000000000
0.000000000000
0.000000000000
0.000000000000
0.000000000000
0.000000000000
0.000000000000
0.000000000000
0.000000000000
0.000000000000
0.000000000000
0.000000000000
0.000000000000
0.000000000000
0.000000000000
0.000000000000
0.000000000000
0.000000000000
0.000000000000
0.000000000000
0.000000000000
0.000000000000
0.000000000000
0.000000000000
0.000000000000
0.000000000000
0.000000000000
0.000000000000
0.000000000000
0.000000000000
0.000000000000
0.000000000000
0.000000000000
0.000000000000
0.000000000000
0.000000000000
0.000000000000
0.000000000000
0.000000000000
0.000000000000
0.000000000000
0.000000000000
0.000000000000
0.000000000000
0.000000000000
0.000000000000
0.000000000000
0.000000000000
0.000000000000
0.000000000000
0.000000000000
0.000000000000
0.000000000000
0.000000000000
0.000000000000
0.000000000000
0.000000000000
0.000000000000
0.000000000000
0.000000000000
0.000000000000
0.000000000000
0.000000000000
0.000000000000
0.000000000000
0.000000000000
0.000000000000
0.000000000000
0.000000000000
0.000000000000
0.000000000000
0.000000000000
0.000000000000
0.000000000000
0.000000000000
0.000000000000
0.000000000000
0.000000000000
0.000000000000
0.000000000000
0.000000000000
0.000000000000
0.000000000000
0.000000000000
0.000000000000
0.000000000000
0.000000000000
0.000000000000
0.000000000000
0.000000000000
0.000000000000
0.000000000000
0.000000000000
0.000000000000
0.000000000000
0.000000000000
0.000000000000
0.000000000000
0.000000000000
0.000000000000
0.000000000000
0.000000000000
0.000000000000
0.000000000000
0.000000000000
0.000000000000
0.000000000000
0.000000000000
0.000000000000
0.000000000000
0.000000000000
0.000000000000
0.000000000000
0.000000000000
0.000000000000
0.000000000000
0.000000000000
0.000000000000
0.000000000000
0.000000000000
0.000000000000
0.000000000000
0.000000000000
0.000000000000
0.000000000000
0.000000000000
0.000000000000
0.000000000000
0.000000000000
0.000000000000
0.000000000000
0.000000000000
0.000000000000
0.000000000000
0.000000000000
0.000000000000
0.000000000000
0.000000000000
0.000000000000
0.000000000000
0.000000000000
0.000000000000
0.000000000000
0.000000000000
0.000000000000
0.000000000000
0.000000000000
0.000000365352
0.000004638786
0.000001308620
-0.000000988879
-0.000001395566
-0.000005608128
-0.000007027922
-0.000000893334
0.000004547805
0.000010208684
0.000014047075
0.000008232645
-0.000003776469
-0.000011124469
-0.000027923079
-0.000022667354
-0.000014904332
0.000004943617
0.000026246913
0.000047518172
0.000040715002
0.000045864428
-0.000004501702
-0.000014646168
-0.000071035262
-0.000073604864
-0.000088712823
-0.000059844230
-0.000025462597
0.000027627546
0.000078045261
0.000119660526
0.000141017534
0.000138286284
0.000109140863
0.000057150319
-0.000009619740
-0.000085126035
-0.000156649102
-0.000218809521
-0.000262534448
-0.000285731484
-0.000285098739
-0.000263506730
-0.000222269364
-0.000166752641
-0.000101493709
-0.000031404090
0.000038678299
0.000104828933
0.000164327214
0.000214729016
0.000255026057
0.000285169254
0.000304798872
0.000315529906
0.000317888746
0.000313420561
0.000303660020
0.000289639919
0.000272825960
0.000254445026
0.000234986051
0.000215933052
0.000197236693
0.000179780795
0.000163900509
0.000149416323
0.000137115873
0.000126375805
0.000117672961
0.000110879714
0.000105602962
0.000102450161
0.000100422797
0.000100296204
0.000101206319
0.000103404131
0.000106653807
0.000110481880
0.000115187561
0.000119903575
0.000124995662
0.000129675407
0.000133961621
0.000137380846
0.000139517305
0.000140119674
0.000138562105
0.000134568392
0.000127653813
0.000117372685
0.000103677589
0.000086073923
0.000065111947
0.000040622414
0.000013781882
-0.000014801823
-0.000043421736
-0.000070443297
-0.000093908218
-0.000111394482
-0.000121266021
-0.000121196445
-0.000110773587
-0.000089134461
-0.000058067646
-0.000019402410
0.000022494117
0.000063029958
0.000096378434
0.000117166918
0.000121120375
0.000105900334
0.000072549554
0.000025211323
-0.000028270950
-0.000077840188
-0.000112928366
-0.000124279177
-0.000107856955
-0.000064544550
-0.000004198331
0.000059837500
0.000108549167
0.000128336579
0.000109086379
0.000055920438
-0.000018278262
-0.000087468086
-0.000128673572
-0.000122426694
-0.000069741459
0.000013559779
0.000093137600
0.000136202013
0.000119366589
0.000047859233
-0.000049162719
-0.000124157091
-0.000138350683
-0.000079292587
0.000024984702
0.000119304624
0.000147950909
0.000089332171
-0.000026208173
-0.000129706339
-0.000151890310
-0.000073069966
0.000060185941
0.000154423114
0.000137511774
0.000010861611
-0.000134113341
-0.000183109098
-0.000085408686
0.000085799288
0.000183448738
0.000107295528
-0.000088310573
-0.000221930642
-0.000148309843
0.000081874138
0.000240324274
0.000148846955
-0.000107796360
-0.000236716733
-0.000063537244
0.000232882568
0.000306450683
0.000092145778
-0.000056154328
0.000187577161
0.000623923971
0.000716752962
0.000324891305
-0.000056425792
-0.000000498593
0.000205596182
0.000050004673
-0.000283466603
-0.000156287007
0.000374207994
0.000497149499
-0.000011928053
-0.000358637727
-0.000107966452
0.000107880657
-0.000081702013
-0.000063543064
0.000328141526
0.000253467797
-0.000353433303
-0.000392498024
0.000219918678
0.000335155133
-0.000083538046
-0.000126583641
0.000000000000
0.000000000000
0.000005789227
0.000000481034
-0.000007284198
-0.000005181811
-0.000007047141
-0.000004312444
0.000008476423
0.000017111847
0.000017161251
0.000010209095
-0.000007517437
-0.000029334974
-0.000034220022
-0.000034013501
-0.000010400923
0.000027277364
0.000055030006
0.000072410430
0.000064253755
0.000020440711
-0.000027191861
-0.000089497986
-0.000125324907
-0.000123622258
-0.000098133912
-0.000015863120
0.000059238558
0.000152962787
0.000202911660
0.000225080184
0.000188245914
0.000112797223
-0.000000668610
-0.000123469619
-0.000243783503
-0.000332362082
-0.000383148363
-0.000382248815
-0.000331811367
-0.000237615878
-0.000109847348
0.000036826557
0.000188491185
0.000330308583
0.000453290127
0.000546578601
0.000608478853
0.000635744462
0.000630903072
0.000597184780
0.000540201105
0.000464522893
0.000377793945
0.000283758260
0.000188500316
0.000095782766
0.000008168101
-0.000071345220
-0.000141846324
-0.000202963024
-0.000253609119
-0.000295457558
-0.000328095265
-0.000352772191
-0.000370938200
-0.000382468533
-0.000389686697
-0.000392461273
-0.000391921627
-0.000389265063
-0.000383816265
-0.000377591206
-0.000369421739
-0.000360533826
-0.000350785049
-0.000339744074
-0.000328457733
-0.000315460547
-0.000301884465
-0.000286564991
-0.000269558480
-0.000250843850
-0.000229180588
-0.000205517532
-0.000178104435
-0.000148032361
-0.000114211281
-0.000077127367
-0.000037208887
0.000005812529
0.000049784632
0.000095243221
0.000138714911
0.000180232259
0.000215795483
0.000244384941
0.000262485204
0.000268121740
0.000259416294
0.000234349483
0.000193885952
0.000137451459
0.000069794319
-0.000006863749
-0.000083999749
-0.000156493882
-0.000213888054
-0.000250326550
-0.000257498519
-0.000233212267
-0.000176542715
-0.000093524123
0.000006212049
0.000107768648
0.000194131535
0.000248525267
0.000257727420
0.000216349582
0.000128559787
0.000010215681
-0.000114077591
-0.000214337329
-0.000263423877
-0.000244026557
-0.000156456901
-0.000020772081
0.000125297159
0.000236461146
0.000273313606
0.000217970067
0.000083455174
-0.000085698839
-0.000226669675
-0.000280952247
-0.000219903703
-0.000062217518
0.000128666535
0.000266106805
0.000281811236
0.000158832161
-0.000047471525
-0.000235415667
-0.000298989061
-0.000196464786
0.000026809399
0.000242615975
0.000320580223
0.000198377012
-0.000054699763
-0.000279458076
-0.000313261306
-0.000118307444
0.000181266989
0.000362683847
0.000271581766
-0.000042893902
-0.000336495241
-0.000349624405
-0.000045493008
0.000322567081
0.000398694822
0.000071219768
-0.000375431655
-0.000487896696
-0.000117741281
0.000362127083
0.000405663861
-0.000079610953
-0.000548838645
-0.000424821904
0.000149276395
0.000396989363
-0.000096350536
-0.000728522486
-0.000595388948
0.000227463957
0.000681831937
0.000220937592
-0.000344100949
-0.000093090900
0.000478045042
0.000236365935
-0.000580597175
-0.000595323872
0.000344579411
0.000760997818
0.000072967508
-0.000417996963
-0.000006008184
0.000183155659
-0.000333894316
-0.000292148838
0.000538469787
0.000538639430
-0.000442611355
-0.000582649081
0.000229549576
0.000360968238
-0.000061986951
0.000000000000
0.000000000000
-0.000000340699
-0.000012430062
-0.000006061358
-0.000000551572
0.000005210179
0.000018641072
0.000019670341
0.000008462474
-0.000011924677
-0.000032602878
-0.000043069968
-0.000028421303
0.000000170649
0.000042130492
0.000074623178
0.000081290841
0.000049258133
-0.000007388267
-0.000080363348
-0.000132304339
-0.000152768184
-0.000111847188
-0.000036063665
0.000081430944
0.000174247126
0.000254278637
0.000250781958
0.000198692939
0.000074224170
-0.000076889767
-0.000235764467
-0.000360168149
-0.000428762216
-0.000421883111
-0.000342123442
-0.000194192540
-0.000008866235
0.000198148834
0.000389462666
0.000548031510
0.000652137675
0.000694607601
0.000670946322
0.000589488671
0.000458004506
0.000291513244
0.000105698074
-0.000086555502
-0.000270713079
-0.000437037806
-0.000578544453
-0.000690203804
-0.000770109328
-0.000820289442
-0.000840609204
-0.000837016615
-0.000812150876
-0.000770600960
-0.000717692587
-0.000656209105
-0.000590373851
-0.000523810457
-0.000457221736
-0.000394975776
-0.000336294470
-0.000283451322
-0.000237120736
-0.000196405455
-0.000163241060
-0.000135837613
-0.000114944211
-0.000100560298
-0.000091050209
-0.000088297447
-0.000089733505
-0.000096964916
-0.000108845187
-0.000124803632
-0.000145995644
-0.000169768916
-0.000198342713
-0.000228701226
-0.000261965062
-0.000296510119
-0.000330883494
-0.000365401033
-0.000396040524
-0.000424272523
-0.000444739732
-0.000458702449
-0.000461179050
-0.000452224653
-0.000428782219
-0.000389675292
-0.000334897840
-0.000263030008
-0.000177803952
-0.000079101116
0.000025450931
0.000133388284
0.000233954579
0.000322066535
0.000386141200
0.000420459000
0.000416762038
0.000372639132
0.000288338201
0.000169043674
0.000027119052
-0.000123371273
-0.000259794101
-0.000364588627
-0.000414793400
-0.000401942782
-0.000318073487
-0.000177201850
0.000003426170
0.000186117445
0.000337000709
0.000415890747
0.000402676195
0.000289845532
0.000101835872
-0.000119849885
-0.000313054334
-0.000422017870
-0.000404950105
-0.000260792994
-0.000025688709
0.000223132487
0.000400322180
0.000432046576
0.000299414602
0.000041106821
-0.000240119614
-0.000428593030
-0.000430059867
-0.000236084289
0.000077582337
0.000359152211
0.000466942105
0.000328372085
0.000006519732
-0.000333383658
-0.000491948897
-0.000363848297
-0.000005951548
0.000368840027
0.000514781697
0.000315095944
-0.000118589231
-0.000487549112
-0.000510172652
-0.000132965103
0.000376496252
0.000613234823
0.000346468964
-0.000231629234
-0.000621777106
-0.000430594547
0.000217917118
0.000721736592
0.000549173078
-0.000180164737
-0.000718090132
-0.000450702329
0.000366473388
0.000786539217
0.000260584795
-0.000601309070
-0.000670082454
0.000251097171
0.001030235294
0.000631617957
-0.000408031640
-0.000624590633
0.000265710742
0.000864360833
0.000191573897
-0.000707837619
-0.000366243162
0.000656430335
0.000615875952
-0.000446058199
-0.000710242685
0.000235333602
0.000675031635
-0.000063726300
-0.000441955166
0.000198978420
0.000382952336
-0.000362298680
-0.000452402737
0.000403785530
0.000510430708
-0.000287746294
-0.000402054414
0.000132457900
0.000149665365
0.000000000000
0.000000000000
-0.000010619704
-0.000004411870
0.000010185528
0.000013107127
0.000019595953
0.000008469869
-0.000012685801
-0.000031937648
-0.000042237284
-0.000026182471
0.000011188988
0.000048821217
0.000081040406
0.000073942004
0.000029641688
-0.000038115740
-0.000115862892
-0.000149647106
-0.000137343639
-0.000065717619
0.000052920879
0.000168986009
0.000251836291
0.000268786469
0.000191507993
0.000063627552
-0.000128489363
-0.000287437351
-0.000414923872
-0.000445918568
-0.000383278855
-0.000230261120
-0.000013782255
0.000224297933
0.000444818906
0.000607670288
0.000686325085
0.000673772416
0.000565108043
0.000384912604
0.000150861941
-0.000104647748
-0.000355530461
-0.000574426545
-0.000746966230
-0.000856512930
-0.000902965998
-0.000886007351
-0.000812565440
-0.000693460449
-0.000540710303
-0.000365070718
-0.000180758505
0.000004333620
0.000181210680
0.000342496710
0.000486535518
0.000608643780
0.000709206887
0.000789504706
0.000848776746
0.000891592967
0.000918685808
0.000932550586
0.000937439948
0.000932969636
0.000924005139
0.000910874705
0.000895052900
0.000879668509
0.000862821360
0.000848233390
0.000834180873
0.000821458879
0.000811200248
0.000800464417
0.000792367416
0.000782701315
0.000773446825
0.000762267721
0.000747717639
0.000730507570
0.000706053666
0.000676851029
0.000637506566
0.000590054503
0.000530921054
0.000460276676
0.000377903853
0.000282453599
0.000177184881
0.000061011539
-0.000060142259
-0.000184959000
-0.000305988707
-0.000418241832
-0.000514027388
-0.000585221890
-0.000625635595
-0.000626713928
-0.000586358820
-0.000499967883
-0.000372719535
-0.000208408477
-0.000021730800
0.000173389013
0.000354191612
0.000500669283
0.000589656889
0.000606022162
0.000539401782
0.000393595971
0.000183180251
-0.000061962498
-0.000302948315
-0.000495318759
-0.000597942897
-0.000583838666
-0.000445440018
-0.000206160479
0.000088414767
0.000366949539
0.000560644264
0.000607247181
0.000487684671
0.000220640499
-0.000117931776
-0.000429908808
-0.000605636747
-0.000579868070
-0.000344428584
0.000022842763
0.000392022840
0.000612080976
0.000584709666
0.000303806391
-0.000119642452
-0.000500249856
-0.000652747743
-0.000487129928
-0.000067949237
0.000401119008
0.000665226416
0.000563258102
0.000125365782
-0.000405784105
-0.000710505968
-0.000570889574
-0.000049100509
0.000531045120
0.000755945956
0.000431209068
-0.000250335154
-0.000783375821
-0.000722429336
-0.000062234209
0.000679857792
0.000842961984
0.000221499991
-0.000667549016
-0.000970969216
-0.000331685980
0.000666871560
0.000985674157
0.000235268693
-0.000788614027
-0.000890901659
0.000115215995
0.001037440180
0.000666381923
-0.000647565956
-0.001287523614
-0.000442099641
0.000726011103
0.000616472850
-0.000510454226
-0.000852452040
0.000212969543
0.001075384016
0.000350705575
-0.000872536820
-0.000735800998
0.000375183777
0.000572116352
-0.000271174670
-0.000456514636
0.000343180778
0.000554354742
-0.000234000916
-0.000534105871
0.000121672686
0.000419484881
-0.000055199370
-0.000243324662
0.000081223381
0.000133414564
-0.000082107237
-0.000061190540
0.000034568483
0.000000000000
0.000000000000
-0.000003132768
0.000017721558
0.000015545126
0.000008420004
-0.000008141063
-0.000031398791
-0.000035158418
-0.000024180193
0.000010069965
0.000055578259
0.000072108658
0.000065452238
0.000014496477
-0.000064102760
-0.000120535791
-0.000150502223
-0.000103375346
-0.000004893482
0.000117673458
0.000223600342
0.000264079303
0.000209102585
0.000076419615
-0.000111045800
-0.000293245995
-0.000408650094
-0.000435057498
-0.000327026179
-0.000139145460
0.000118709180
0.000371602990
0.000566586779
0.000668029765
0.000643436680
0.000506226564
0.000271304495
-0.000014276665
-0.000309385957
-0.000570340643
-0.000757167153
-0.000854470456
-0.000848489953
-0.000747008113
-0.000565512992
-0.000327079788
-0.000054973883
0.000220509530
0.000482142698
0.000708369026
0.000888041636
0.001015051006
0.001087186802
0.001105678685
0.001079291782
0.001011226743
0.000913360286
0.000793093494
0.000657376086
0.000516117335
0.000373168763
0.000234029987
0.000104197593
-0.000017110721
-0.000124436185
-0.000219341669
-0.000301211150
-0.000368107131
-0.000424002341
-0.000465822396
-0.000496699743
-0.000517128783
-0.000525575885
-0.000526675826
-0.000516000476
-0.000498259087
-0.000470756811
-0.000434245345
-0.000390202119
-0.000335299642
-0.000273560828
-0.000201011549
-0.000120688484
-0.000031772800
0.000065813529
0.000168286714
0.000277989883
0.000387880873
0.000499567717
0.000605490148
0.000703455765
0.000787827859
0.000851350743
0.000891635038
0.000897742409
0.000870994391
0.000800543212
0.000691776391
0.000539004924
0.000352315849
0.000135782703
-0.000095524114
-0.000325912343
-0.000537083483
-0.000704941724
-0.000813619551
-0.000839983202
-0.000780312416
-0.000625763748
-0.000394796616
-0.000103192155
0.000206215483
0.000495846707
0.000712857519
0.000820363085
0.000786698567
0.000610256379
0.000311331301
-0.000056166718
-0.000421082909
-0.000699102949
-0.000821071429
-0.000743121113
-0.000474425103
-0.000070831279
0.000359727099
0.000696525240
0.000826575608
0.000698959859
0.000335722494
-0.000148824245
-0.000592279827
-0.000822961322
-0.000742365039
-0.000359516387
0.000180881363
0.000659966389
0.000855497710
0.000663865622
0.000147235205
-0.000454297679
-0.000842902511
-0.000792036367
-0.000303817355
0.000381605091
0.000870923099
0.000855952223
0.000301894789
-0.000470298436
-0.000959842283
-0.000797500153
-0.000043171902
0.000792107572
0.001070050824
0.000515046735
-0.000487428574
-0.001124053979
-0.000797641046
0.000275167048
0.001152109349
0.000967629687
-0.000175118539
-0.001176511833
-0.000981876045
0.000254486065
0.001187370990
0.000713833028
-0.000686639839
-0.001357023679
-0.000418451587
0.001042893536
0.001231947935
-0.000035654016
-0.001020893535
-0.000416571478
0.000797055555
0.000754760552
-0.000503330874
-0.001056148124
-0.000056147280
0.000950374235
0.000486382883
-0.000569870874
-0.000600270103
0.000101443533
0.000163347868
-0.000323025367
-0.000210644682
0.000409608612
0.000461966688
-0.000090535700
-0.000387386130
-0.000212865737
0.000079901031
0.000294615980
0.000211794328
-0.000162693812
-0.000249641074
0.000046113747
0.000102738002
0.000000000000
0.000000000000
0.000014892602
0.000014801739
-0.000009069860
-0.000021247122
-0.000034045678
-0.000021657856
0.000010664352
0.000043041119
0.000070686114
0.000053309407
0.000003174072
-0.000063574967
-0.000126364150
-0.000125253652
-0.000075293214
0.000040429093
0.000154897545
0.000237750801
0.000225331811
0.000127485669
-0.000049275290
-0.000239355792
-0.000374424893
-0.000407552896
-0.000310840641
-0.000100607074
0.000161022087
0.000421557759
0.000586892416
0.000634526559
0.000531768750
0.000298606255
-0.000002281412
-0.000333770686
-0.000605526004
-0.000789491011
-0.000836775621
-0.000756081029
-0.000553008568
-0.000266459529
0.000060377499
0.000386846419
0.000669001223
0.000877809543
0.000996465509
0.001016214279
0.000941797307
0.000788958915
0.000570949117
0.000313052039
0.000034249276
-0.000247372812
-0.000513921862
-0.000754184585
-0.000961809913
-0.001128113323
-0.001256740990
-0.001345562135
-0.001398404097
-0.001421934259
-0.001417927049
-0.001394466626
-0.001356641572
-0.001306676396
-0.001253750969
-0.001196527895
-0.001141759528
-0.001091271635
-0.001044732413
-0.001008236994
-0.000977569884
-0.000957647532
-0.000946900107
-0.000944354486
-0.000953275260
-0.000968105684
-0.000993060381
-0.001023374293
-0.001058832654
-0.001099342983
-0.001138428597
-0.001179841154
-0.001213606532
-0.001243039807
-0.001259402319