# vtk DataFile Version 2.0
TITLE = "Quad data"
ASCII
DATASET STRUCTURED_GRID
DIMENSIONS 201 201 1
POINTS 40401 FLOAT
-1.000000 -1.000000 0.000000
-1.000000 -0.990000 0.000000
-1.000000 -0.980000 0.000000
-1.000000 -0.970000 0.000000
-1.000000 -0.960000 0.000000
-1.000000 -0.950000 0.000000
-1.000000 -0.940000 0.000000
-1.000000 -0.930000 0.000000
-1.000000 -0.920000 0.000000
-1.000000 -0.910000 0.000000
-1.000000 -0.900000 0.000000
-1.000000 -0.890000 0.000000
-1.000000 -0.880000 0.000000
-1.000000 -0.870000 0.000000
-1.000000 -0.860000 0.000000
-1.000000 -0.850000 0.000000
-1.000000 -0.840000 0.000000
-1.000000 -0.830000 0.000000
-1.000000 -0.820000 0.000000
-1.000000 -0.810000 0.000000
-1.000000 -0.800000 0.000000
-1.000000 -0.790000 0.000000
-1.000000 -0.780000 0.000000
-1.000000 -0.770000 0.000000
-1.000000 -0.760000 0.000000
-1.000000 -0.750000 0.000000
-1.000000 -0.740000 0.000000
-1.000000 -0.730000 0.000000
-1.000000 -0.720000 0.000000
-1.000000 -0.710000 0.000000
-1.000000 -0.700000 0.000000
-1.000000 -0.690000 0.000000
-1.000000 -0.680000 0.000000
-1.000000 -0.670000 0.000000
-1.000000 -0.660000 0.000000
-1.000000 -0.650000 0.000000
-1.000000 -0.640000 0.000000
-1.000000 -0.630000 0.000000
-1.000000 -0.620000 0.000000
-1.000000 -0.610000 0.000000
-1.000000 -0.600000 0.000000
-1.000000 -0.590000 0.000000
-1.000000 -0.580000 0.000000
-1.000000 -0.570000 0.000000
-1.000000 -0.560000 0.000000
-1.000000 -0.550000 0.000000
-1.000000 -0.540000 0.000000
-1.000000 -0.530000 0.000000
-1.000000 -0.520000 0.000000
-1.000000 -0.510000 0.000000
-1.000000 -0.500000 0.000000
-1.000000 -0.490000 0.000000
-1.000000 -0.480000 0.000000
-1.000000 -0.470000 0.000000
-1.000000 -0.460000 0.000000
-1.000000 -0.450000 0.000000
-1.000000 -0.440000 0.000000
-1.000000 -0.430000 0.000000
-1.000000 -0.420000 0.000000
-1.000000 -0.410000 0.000000
-1.000000 -0.400000 0.000000
-1.000000 -0.390000 0.000000
-1.000000 -0.380000 0.000000
-1.000000 -0.370000 0.000000
-1.000000 -0.360000 0.000000
-1.000000 -0.350000 0.000000
-1.000000 -0.340000 0.000000
-1.000000 -0.330000 0.000000
-1.000000 -0.320000 0.000000
-1.000000 -0.310000 0.000000
-1.000000 -0.300000 0.000000
-1.000000 -0.290000 0.000000
-1.000000 -0.280000 0.000000
-1.000000 -0.270000 0.000000
-1.000000 -0.260000 0.000000
-1.000000 -0.250000 0.000000
-1.000000 -0.240000 0.000000
-1.000000 -0.230000 0.000000
-1.000000 -0.220000 0.000000
-1.000000 -0.210000 0.000000
-1.000000 -0.200000 0.000000
-1.000000 -0.190000 0.000000
-1.000000 -0.180000 0.000000
-1.000000 -0.170000 0.000000
-1.000000 -0.160000 0.000000
-1.000000 -0.150000 0.000000
-1.000000 -0.140000 0.000000
-1.000000 -0.130000 0.000000
-1.000000 -0.120000 0.000000
-1.000000 -0.110000 0.000000
-1.000000 -0.100000 0.000000
-1.000000 -0.090000 0.000000
-1.000000 -0.080000 0.000000
-1.000000 -0.070000 0.000000
-1.000000 -0.060000 0.000000
-1.000000 -0.050000 0.000000
-1.000000 -0.040000 0.000000
-1.000000 -0.030000 0.000000
-1.000000 -0.020000 0.000000
-1.000000 -0.010000 0.000000
-1.000000 0.000000 0.000000
-1.000000 0.010000 0.000000
-1.000000 0.020000 0.000000
-1.000000 0.030000 0.000000
-1.000000 0.040000 0.000000
-1.000000 0.050000 0.000000
-1.000000 0.060000 0.000000
-1.000000 0.070000 0.000000
-1.000000 0.080000 0.000000
-1.000000 0.090000 0.000000
-1.000000 0.100000 0.000000
-1.000000 0.110000 0.000000
-1.000000 0.120000 0.000000
-1.000000 0.130000 0.000000
-1.000000 0.140000 0.000000
-1.000000 0.150000 0.000000
-1.000000 0.160000 0.000000
-1.000000 0.170000 0.000000
-1.000000 0.180000 0.000000
-1.000000 0.190000 0.000000
-1.000000 0.200000 0.000000
-1.000000 0.210000 0.000000
-1.000000 0.220000 0.000000
-1.000000 0.230000 0.000000
-1.000000 0.240000 0.000000
-1.000000 0.250000 0.000000
-1.000000 0.260000 0.000000
-1.000000 0.270000 0.000000
-1.000000 0.280000 0.000000
-1.000000 0.290000 0.000000
-1.000000 0.300000 0.000000
-1.000000 0.310000 0.000000
-1.000000 0.320000 0.000000
-1.000000 0.330000 0.000000
-1.000000 0.340000 0.000000
-1.000000 0.350000 0.000000
-1.000000 0.360000 0.000000
-1.000000 0.370000 0.000000
-1.000000 0.380000 0.000000
-1.000000 0.390000 0.000000
-1.000000 0.400000 0.000000
-1.000000 0.410000 0.000000
-1.000000 0.420000 0.000000
-1.000000 0.430000 0.000000
-1.000000 0.440000 0.000000
-1.000000 0.450000 0.000000
-1.000000 0.460000 0.000000
-1.000000 0.470000 0.000000
-1.000000 0.480000 0.000000
-1.000000 0.490000 0.000000
-1.000000 0.500000 0.000000
-1.000000 0.510000 0.000000
-1.000000 0.520000 0.000000
-1.000000 0.530000 0.000000
-1.000000 0.540000 0.000000
-1.000000 0.550000 0.000000
-1.000000 0.560000 0.000000
-1.000000 0.570000 0.000000
-1.000000 0.580000 0.000000
-1.000000 0.590000 0.000000
-1.000000 0.600000 0.000000
-1.000000 0.610000 0.000000
-1.000000 0.620000 0.000000
-1.000000 0.630000 0.000000
-1.000000 0.640000 0.000000
-1.000000 0.650000 0.000000
-1.000000 0.660000 0.000000
-1.000000 0.670000 0.000000
-1.000000 0.680000 0.000000
-1.000000 0.690000 0.000000
-1.000000 0.700000 0.000000
-1.000000 0.710000 0.000000
-1.000000 0.720000 0.000000
-1.000000 0.730000 0.000000
-1.000000 0.740000 0.000000
-1.000000 0.750000 0.000000
-1.000000 0.760000 0.000000
-1.000000 0.770000 0.000000
-1.000000 0.780000 0.000000
-1.000000 0.790000 0.000000
-1.000000 0.800000 0.000000
-1.000000 0.810000 0.000000
-1.000000 0.820000 0.000000
-1.000000 0.830000 0.000000
-1.000000 0.840000 0.000000
-1.000000 0.850000 0.000000
-1.000000 0.860000 0.000000
-1.000000 0.870000 0.000000
-1.000000 0.880000 0.000000
-1.000000 0.890000 0.000000
-1.000000 0.900000 0.000000
-1.000000 0.910000 0.000000
-1.000000 0.920000 0.000000
-1.000000 0.930000 0.000000
-1.000000 0.940000 0.000000
-1.000000 0.950000 0.000000
-1.000000 0.960000 0.000000
-1.000000 0.970000 0.000000
-1.000000 0.980000 0.000000
-1.000000 0.990000 0.000000
-1.000000 1.000000 0.000000
-0.990000 -1.000000 0.000000
-0.990000 -0.990000 0.000000
-0.990000 -0.980000 0.000000
-0.990000 -0.970000 0.000000
-0.990000 -0.960000 0.000000
-0.990000 -0.950000 0.000000
-0.990000 -0.940000 0.000000
-0.990000 -0.930000 0.000000
-0.990000 -0.920000 0.000000
-0.990000 -0.910000 0.000000
-0.990000 -0.900000 0.000000
-0.990000 -0.890000 0.000000
-0.990000 -0.880000 0.000000
-0.990000 -0.870000 0.000000
-0.990000 -0.860000 0.000000
-0.990000 -0.850000 0.000000
-0.990000 -0.840000 0.000000
-0.990000 -0.830000 0.000000
-0.990000 -0.820000 0.000000
-0.990000 -0.810000 0.000000
-0.990000 -0.800000 0.000000
-0.990000 -0.790000 0.000000
-0.990000 -0.780000 0.000000
-0.990000 -0.770000 0.000000
-0.990000 -0.760000 0.000000
-0.990000 -0.750000 0.000000
-0.990000 -0.740000 0.000000
-0.990000 -0.730000 0.000000
-0.990000 -0.720000 0.000000
-0.990000 -0.710000 0.000000
-0.990000 -0.700000 0.000000
-0.990000 -0.690000 0.000000
-0.990000 -0.680000 0.000000
-0.990000 -0.670000 0.000000
-0.990000 -0.660000 0.000000
-0.990000 -0.650000 0.000000
-0.990000 -0.640000 0.000000
-0.990000 -0.630000 0.000000
-0.990000 -0.620000 0.000000
-0.990000 -0.610000 0.000000
-0.990000 -0.600000 0.000000
-0.990000 -0.590000 0.000000
-0.990000 -0.580000 0.000000
-0.990000 -0.570000 0.000000
-0.990000 -0.560000 0.000000
-0.990000 -0.550000 0.000000
-0.990000 -0.540000 0.000000
-0.990000 -0.530000 0.000000
-0.990000 -0.520000 0.000000
-0.990000 -0.510000 0.000000
-0.990000 -0.500000 0.000000
-0.990000 -0.490000 0.000000
-0.990000 -0.480000 0.000000
-0.990000 -0.470000 0.000000
-0.990000 -0.460000 0.000000
-0.990000 -0.450000 0.000000
-0.990000 -0.440000 0.000000
-0.990000 -0.430000 0.000000
-0.990000 -0.420000 0.000000
-0.990000 -0.410000 0.000000
-0.990000 -0.400000 0.000000
-0.990000 -0.390000 0.000000
-0.990000 -0.380000 0.000000
-0.990000 -0.370000 0.000000
-0.990000 -0.360000 0.000000
-0.990000 -0.350000 0.000000
-0.990000 -0.340000 0.000000
-0.990000 -0.330000 0.000000
-0.990000 -0.320000 0.000000
-0.990000 -0.310000 0.000000
-0.990000 -0.300000 0.000000
-0.990000 -0.290000 0.000000
-0.990000 -0.280000 0.000000
-0.990000 -0.270000 0.000000
-0.990000 -0.260000 0.000000
-0.990000 -0.250000 0.000000
-0.990000 -0.240000 0.000000
-0.990000 -0.230000 0.000000
-0.990000 -0.220000 0.000000
-0.990000 -0.210000 0.000000
-0.990000 -0.200000 0.000000
-0.990000 -0.190000 0.000000
-0.990000 -0.180000 0.000000
-0.990000 -0.170000 0.000000
-0.990000 -0.160000 0.000000
-0.990000 -0.150000 0.000000
-0.990000 -0.140000 0.000000
-0.990000 -0.130000 0.000000
-0.990000 -0.120000 0.000000
-0.990000 -0.110000 0.000000
-0.990000 -0.100000 0.000000
-0.990000 -0.090000 0.000000
-0.990000 -0.080000 0.000000
-0.990000 -0.070000 0.000000
-0.990000 -0.060000 0.000000
-0.990000 -0.050000 0.000000
-0.990000 -0.040000 0.000000
-0.990000 -0.030000 0.000000
-0.990000 -0.020000 0.000000
-0.990000 -0.010000 0.000000
-0.990000 0.000000 0.000000
-0.990000 0.010000 0.000000
-0.990000 0.020000 0.000000
-0.990000 0.030000 0.000000
-0.990000 0.040000 0.000000
-0.990000 0.050000 0.000000
-0.990000 0.060000 0.000000
-0.990000 0.070000 0.000000
-0.990000 0.080000 0.000000
-0.990000 0.090000 0.000000
-0.990000 0.100000 0.000000
-0.990000 0.110000 0.000000
-0.990000 0.120000 0.000000
-0.990000 0.130000 0.000000
-0.990000 0.140000 0.000000
-0.990000 0.150000 0.000000
-0.990000 0.160000 0.000000
-0.990000 0.170000 0.000000
-0.990000 0.180000 0.000000
-0.990000 0.190000 0.000000
-0.990000 0.200000 0.000000
-0.990000 0.210000 0.000000
-0.990000 0.220000 0.000000
-0.990000 0.230000 0.000000
-0.990000 0.240000 0.000000
-0.990000 0.250000 0.000000
-0.990000 0.260000 0.000000
-0.990000 0.270000 0.000000
-0.990000 0.280000 0.000000
-0.990000 0.290000 0.000000
-0.990000 0.300000 0.000000
-0.990000 0.310000 0.000000
-0.990000 0.320000 0.000000
-0.990000 0.330000 0.000000
-0.990000 0.340000 0.000000
-0.990000 0.350000 0.000000
-0.990000 0.360000 0.000000
-0.990000 0.370000 0.000000
-0.990000 0.380000 0.000000
-0.990000 0.390000 0.000000
-0.990000 0.400000 0.000000
-0.990000 0.410000 0.000000
-0.990000 0.420000 0.000000
-0.990000 0.430000 0.000000
[...]
POINT_DATA 40401
SCALARS phi FLOAT 1
LOOKUP_TABLE default
0.000000000000
0.000000000000
0.000000000000
0.000000000000
0.000000000000
0.000000000000
0.000000000000
0.000000000000
0.000000000000
0.000000000000
0.000000000000
0.000000000000
0.000000000000
0.000000000000
0.000000000000
0.000000000000
0.000000000000
0.000000000000
0.000000000000
0.000000000000
0.000000000000
0.000000000000
0.000000000000
0.000000000000
0.000000000000
0.000000000000
0.000000000000
0.000000000000
0.000000000000
0.000000000000
0.000000000000
0.000000000000
0.000000000000
0.000000000000
0.000000000000
0.000000000000
0.000000000000
0.000000000000
0.000000000000
0.000000000000
0.000000000000
0.000000000000
0.000000000000
0.000000000000
0.000000000000
0.000000000000
0.000000000000
0.000000000000
0.000000000000
0.000000000000
0.000000000000
0.000000000000
0.000000000000
0.000000000000
0.000000000000
0.000000000000
0.000000000000
0.000000000000
0.000000000000
0.000000000000
0.000000000000
0.000000000000
0.000000000000
0.000000000000
0.000000000000
0.000000000000
0.000000000000
0.000000000000
0.000000000000
0.000000000000
0.000000000000
0.000000000000
0.000000000000
0.000000000000
0.000000000000
0.000000000000
0.000000000000
0.000000000000
0.000000000000
0.000000000000
0.000000000000
0.000000000000
0.000000000000
0.000000000000
0.000000000000
0.000000000000
0.000000000000
0.000000000000
0.000000000000
0.000000000000
0.000000000000
0.000000000000
0.000000000000
0.000000000000
0.000000000000
0.000000000000
0.000000000000
0.000000000000
0.000000000000
0.000000000000
0.000000000000
0.000000000000
0.000000000000
0.000000000000
0.000000000000
0.000000000000
0.000000000000
0.000000000000
0.000000000000
0.000000000000
0.000000000000
0.000000000000
0.000000000000
0.000000000000
0.000000000000
0.000000000000
0.000000000000
0.000000000000
0.000000000000
0.000000000000
0.000000000000
0.000000000000
0.000000000000
0.000000000000
0.000000000000
0.000000000000
0.000000000000
0.000000000000
0.000000000000
0.000000000000
0.000000000000
0.000000000000
0.000000000000
0.000000000000
0.000000000000
0.000000000000
0.000000000000
0.000000000000
0.000000000000
0.000000000000
0.000000000000
0.000000000000
0.000000000000
0.000000000000
0.000000000000
0.000000000000
0.000000000000
0.000000000000
0.000000000000
0.000000000000
0.000000000000
0.000000000000
0.000000000000
0.000000000000
0.000000000000
0.000000000000
0.000000000000
0.000000000000
0.000000000000
0.000000000000
0.000000000000
0.000000000000
0.000000000000
0.000000000000
0.000000000000
0.000000000000
0.000000000000
0.000000000000
0.000000000000
0.000000000000
0.000000000000
0.000000000000
0.000000000000
0.000000000000
0.000000000000
0.000000000000
0.000000000000
0.000000000000
0.000000000000
0.000000000000
0.000000000000
0.000000000000
0.000000000000
0.000000000000
0.000000000000
0.000000000000
0.000000000000
0.000000000000
0.000000000000
0.000000000000
0.000000000000
0.000000000000
0.000000000000
0.000000000000
0.000000000000
0.000000000000
0.000000000000
0.000000000000
0.000000000000
0.000000000000
0.000000000000
0.000000000000
0.000000312590
0.000004754162
0.000001435023
-0.000000864302
-0.000001356099
-0.000005825498
-0.000007305975
-0.000001163043
0.000004406454
0.000010447898
0.000014544262
0.000008837814
-0.000003260307
-0.000011124578
-0.000028482364
-0.000023653194
-0.000016133433
0.000004039479
0.000026140865
0.000048135674
0.000042529436
0.000047774533
-0.000002360564
-0.000013523441
-0.000071028696
-0.000075090548
-0.000091484983
-0.000063356315
-0.000028992068
0.000024863919
0.000076833138
0.000120298050
0.000143773397
0.000142716976
0.000114820087
0.000063163505
-0.000004068558
-0.000080949625
-0.000154497782
-0.000219202816
-0.000265673379
-0.000291586631
-0.000293414165
-0.000273825110
-0.000234042376
-0.000179346170
-0.000114299187
-0.000043824612
0.000027117679
0.000094551332
0.000155597315
0.000207740761
0.000249848229
0.000281799887
0.000303154688
0.000315492892
0.000319282069
0.000316075789
0.000307374907
0.000294233340
0.000278119097
0.000260273108
0.000241206711
0.000222421642
0.000203881912
0.000186503285
0.000170618429
0.000156081380
0.000143678695
0.000132802113
0.000123941748
0.000116964021
0.000111495316
0.000108132273
0.000105884066
0.000105526727
0.000106184228
0.000108121574
0.000111079781
0.000114601793
0.000118967503
0.000123317013
0.000128009531
0.000132252683
0.000136070105
0.000138980347
0.000140576757
0.000140606609
0.000138452350
0.000133850018
0.000126323347
0.000115452754
0.000101205190
0.000083119859
0.000061772519
0.000037025081
0.000010089355
-0.000018410982
-0.000046735392
-0.000073262114
-0.000096020679
-0.000112641262
-0.000121516590
-0.000120413043
-0.000108993580
-0.000086510342
-0.000054850299
-0.000015936112
0.000025798153
0.000065750143
0.000098123403
0.000117662798
0.000120249275
0.000103766295
0.000069476700
0.000021725658
-0.000031516209
-0.000080190797
-0.000113852048
-0.000123532941
-0.000105549394
-0.000061198986
-0.000000626371
0.000062674728
0.000109841473
0.000127648866
0.000106575990
0.000052336877
-0.000021760474
-0.000089619690
-0.000128663282
-0.000120175522
-0.000066060889
0.000017228223
0.000095247684
0.000135809013
0.000116604332
0.000044003560
-0.000052224292
-0.000124834868
-0.000136207817
-0.000075410532
0.000028532293
0.000120518624
0.000146181427
0.000085682661
-0.000029358335
-0.000130283126
-0.000149399172
-0.000069148113
0.000062939901
0.000154137743
0.000134559835
0.000007557626
-0.000135138674
-0.000181038256
-0.000081934375
0.000087734323
0.000182053238
0.000103547352
-0.000091427887
-0.000221974974
-0.000145790732
0.000083776510
0.000238632182
0.000143949440
-0.000112163343
-0.000237118674
-0.000060625141
0.000234971281
0.000305149509
0.000090000106
-0.000054667339
0.000192212766
0.000625161759
0.000709805661
0.000313647613
-0.000063937097
-0.000002601376
0.000203685313
0.000046764627
-0.000282239543
-0.000148751123
0.000379076420
0.000492186493
-0.000019799011
-0.000359461075
-0.000104574692
0.000108370667
-0.000080570144
-0.000058029724
0.000328615323
0.000243950890
-0.000358367950
-0.000383988363
0.000226774312
0.000330277219
-0.000088154332
-0.000125137949
0.000000000000
0.000000000000
0.000005976886
0.000000711238
-0.000007338335
-0.000005355304
-0.000007525805
-0.000004735219
0.000008454610
0.000017440857
0.000017985798
0.000011138113
-0.000007039341
-0.000029532781
-0.000035371948
-0.000035780960
-0.000012008464
0.000026457043
0.000055549842
0.000074630885
0.000067195782
0.000023764605
-0.000025230224
-0.000089338245
-0.000127693845
-0.000128025306
-0.000103774655
-0.000021093315
0.000055524570
0.000152387424
0.000205569732
0.000231214951
0.000196602160
0.000122148234
0.000007835694
-0.000117478471
-0.000241581281
-0.000334850152
-0.000390383562
-0.000393861387
-0.000346704887
-0.000254524968
-0.000127116128
0.000020644469
0.000174858584
0.000320277932
0.000447665932
0.000545727781
0.000612487602
0.000644330835
0.000643599633
0.000613330256
0.000559035932
0.000485283812
0.000399709227
0.000306138842
0.000210743340
0.000117381614
0.000028729764
-0.000052096417
-0.000124117804
-0.000186833010
-0.000239125019
-0.000282579155
-0.000316745900
-0.000342851039
-0.000362305217
-0.000374982484
-0.000383201448
-0.000386808933
-0.000386971532
-0.000384850487
-0.000379813721
-0.000373863640
-0.000365844608
-0.000357007599
-0.000347192331
-0.000336009061
-0.000324486684
-0.000311184400
-0.000297242709
-0.000281492928
-0.000264026909
-0.000244807571
-0.000222636150
-0.000198462082
-0.000170561710
-0.000140060714
-0.000105874288
-0.000068553196
-0.000028519571
0.000014422046
0.000058121618
0.000103062216
0.000145761417
0.000186244767
0.000220499995
0.000247562804
0.000263922111
0.000267724939
0.000257135202
0.000230307249
0.000188290343
0.000130697560
0.000062377339
-0.000014313589
-0.000090797649
-0.000161953390
-0.000217386736
-0.000251432833
-0.000255997468
-0.000229251758
-0.000170573110
-0.000086384559
0.000013484247
0.000113966088
0.000198186227
0.000249613782
0.000255582334
0.000211285651
0.000121591568
0.000002820606
-0.000120152141
-0.000217576543
-0.000262876504
-0.000239744500
-0.000149502984
-0.000013142924
0.000131302924
0.000238829145
0.000271176365
0.000211902994
0.000075591540
-0.000092479871
-0.000229633613
-0.000278845734
-0.000213459532
-0.000054229654
0.000134629387
0.000267129289
0.000277338426
0.000150961133
-0.000054668160
-0.000238136267
-0.000295666354
-0.000189008832
0.000034063286
0.000245255491
0.000316997935
0.000190881031
-0.000061132987
-0.000280436764
-0.000308054733
-0.000110478241
0.000186189918
0.000361355850
0.000265346432
-0.000048673247
-0.000336706634
-0.000343437255
-0.000037495564
0.000326116626
0.000395182372
0.000064458894
-0.000378324563
-0.000483229736
-0.000109469140
0.000365546603
0.000399909081
-0.000089622523
-0.000553863766
-0.000422289956
0.000151404704
0.000389991520
-0.000109376799
-0.000734740179
-0.000589052760
0.000235736194
0.000678503255
0.000208505243
-0.000351455761
-0.000092070221
0.000475333131
0.000225253144
-0.000585809130
-0.000584843203
0.000356361603
0.000757496844
0.000062652855
-0.000419056736
-0.000003219786
0.000179108627
-0.000334300737
-0.000280315381
0.000543541815
0.000524719109
-0.000452348066
-0.000572502446
0.000238658038
0.000356263750
-0.000065570435
0.000000000000
0.000000000000
-0.000000121161
-0.000012757866
-0.000006510943
-0.000000935223
0.000005028808
0.000019181033
0.000020569094
0.000009400999
-0.000011423252
-0.000033150692
-0.000044545868
-0.000030429485
-0.000001480607
0.000041825189
0.000076148112
0.000084327726
0.000053108364
-0.000004491493
-0.000079365430
-0.000134495852
-0.000157444987
-0.000118433482
-0.000042191455
0.000077296280
0.000174040555
0.000258493474
0.000258870466
0.000209409107
0.000084854913
-0.000068313092
-0.000231871084
-0.000361882076
-0.000436769742
-0.000435147880
-0.000359145575
-0.000212573776
-0.000026129204
0.000184428236
0.000381188063
0.000546483814
0.000657838108
0.000707266407
0.000689752407
0.000613005315
0.000484629414
0.000319431548
0.000133237328
-0.000060979698
-0.000248295573
-0.000418782552
-0.000565008390
-0.000681713943
-0.000766677981
-0.000821721018
-0.000846524717
-0.000846954903
-0.000825526498
-0.000786870608
-0.000736263625
-0.000676550195
-0.000612008458
-0.000546294426
-0.000480206905
-0.000418164462
-0.000359435936
-0.000306392349
-0.000259699117
-0.000218555012
-0.000184893354
-0.000156959291
-0.000135541517
-0.000120618115
-0.000110600747
-0.000107350898
-0.000108300749
-0.000115074377
-0.000126467929
-0.000141954166
-0.000162613025
-0.000185814538
-0.000213735135
-0.000243326366
-0.000275719233
-0.000309208948
-0.000342388908
-0.000375487269
-0.000404530387
-0.000430942834
-0.000449395611
-0.000461177338
-0.000461316569
-0.000449977962
-0.000424118141
-0.000382734743
-0.000325862245
-0.000252284184
-0.000165805122
-0.000066487471
0.000037963325
0.000144991314
0.000243813258
0.000329413431
0.000390297261
0.000421017962
0.000413549501
0.000365932127
0.000278729193
0.000157614097
0.000015176078
-0.000134240166
-0.000268099721
-0.000369011910
-0.000414574417
-0.000396975607
-0.000309104236
-0.000165764063
0.000015199315
0.000195825022
0.000342532489
0.000415854354
0.000396955721
0.000279650575
0.000089716830
-0.000130713259
-0.000319513473
-0.000422094104
-0.000398419698
-0.000249643769
-0.000013530406
0.000232014532
0.000402622488
0.000426689318
0.000288333419
0.000028652671
-0.000248723225
-0.000429559051
-0.000422862948
-0.000224039040
0.000088636595
0.000363609564
0.000462355621
0.000317059876
-0.000005460073
-0.000339338853
-0.000488576774
-0.000353276935
0.000005077376
0.000373210368
0.000509390301
0.000303374472
-0.000128943454
-0.000489505470
-0.000502690343
-0.000121859006
0.000382386166
0.000608895169
0.000334915672
-0.000241150917
-0.000621110214
-0.000419991621
0.000229299180
0.000723428583
0.000539685031
-0.000190875007
-0.000717544294
-0.000437227647
0.000380752708
0.000788375723
0.000251547621
-0.000605221591
-0.000657960357
0.000269406403
0.001034458101
0.000617478361
-0.000421938840
-0.000622133537
0.000274883328
0.000859484114
0.000173856746
-0.000715980338
-0.000357459008
0.000661495677
0.000603429731
-0.000458331870
-0.000703683760
0.000247358286
0.000671998675
-0.000072667956
-0.000438985050
0.000204277100
0.000375951288
-0.000367599880
-0.000442080420
0.000411445135
0.000500758023
-0.000295973355
-0.000395919147
0.000137703378
0.000147682878
0.000000000000
0.000000000000
-0.000010968082
-0.000005027106
0.000010230274
0.000013440064
0.000020477356
0.000009487586
-0.000012359940
-0.000032515594
-0.000043854074
-0.000028180668
0.000009781264
0.000048974974
0.000083151464
0.000077513458
0.000033299075
-0.000035881566
-0.000116676450
-0.000153382331
-0.000143860649
-0.000072268006
0.000047976065
0.000168246782
0.000255967122
0.000277433889
0.000202769107
0.000074635006
-0.000120853588
-0.000285357183
-0.000420080483
-0.000457447193
-0.000399986964
-0.000248790892
-0.000031220026
0.000211501199
0.000438874074
0.000610167251
0.000697269349
0.000692197573
0.000588903669
0.000411543064
0.000177354975
-0.000080955599
-0.000337000332
-0.000562771267
-0.000743174250
-0.000860892512
-0.000915183971
-0.000905205751
-0.000837521178
-0.000722774316
-0.000572823282
-0.000398569757
-0.000214264223
-0.000028039635
0.000150904064
0.000314965448
0.000462276507
0.000587903806
0.000692140503
0.000776021364
0.000838757475
0.000884787483
0.000914788029
0.000931251479
0.000938375463
0.000935794416
0.000928397532
0.000916474378
0.000901593233
0.000886823536
0.000870338269
0.000855857523
0.000841649748
0.000828576460
0.000817713742
0.000806189559
0.000797093524
0.000786221570
0.000775603091
0.000762838793
0.000746583691
0.000727477357
0.000701032415
0.000669732254
0.000628235538
0.000578655242
0.000517430028
0.000444881277
0.000360803512
0.000264021616
0.000157844331
0.000041327452
-0.000079511543
-0.000203290626
-0.000322461877
-0.000432082571
-0.000524431334
-0.000591565492
-0.000627406064
-0.000623714806
-0.000578675740
-0.000488093697
-0.000357543099
-0.000191197675
-0.000004099294
0.000189670547
0.000367287974
0.000509012334
0.000592070192
0.000602084413
0.000529478120
0.000379055394
0.000166152086
-0.000078667279
-0.000316446175
-0.000502984822
-0.000598201897
-0.000576397426
-0.000431777603
-0.000189154257
0.000104745208
0.000378583617
0.000564379148
0.000601930232
0.000474568899
0.000203495815
-0.000133915347
-0.000439491617
-0.000605488591
-0.000569798080
-0.000327938296
0.000039689494
0.000402606885
0.000612078079
0.000573970147
0.000286984347
-0.000135025407
-0.000506889651
-0.000647391980
-0.000472236235
-0.000051116069
0.000411164492
0.000663016879
0.000550196497
0.000109001739
-0.000415573225
-0.000707704315
-0.000557070420
-0.000033080575
0.000538770356
0.000750080159
0.000415749820
-0.000264328270
-0.000785473338
-0.000710759114
-0.000045895736
0.000687306178
0.000834300165
0.000203088030
-0.000680146024
-0.000966406017
-0.000314559284
0.000678765309
0.000978382839
0.000214148264
-0.000802742439
-0.000884485803
0.000131395943
0.001038854340
0.000644726349
-0.000671555642
-0.001288241479
-0.000422445795
0.000737394572
0.000604170603
-0.000527254078
-0.000849323941
0.000227120404
0.001071072515
0.000325089503
-0.000889222781
-0.000727420372
0.000386498056
0.000565191504
-0.000282248828
-0.000452054567
0.000351640760
0.000548072546
-0.000244424516
-0.000530170669
0.000131189286
0.000417904294
-0.000061446555
-0.000242127698
0.000084469533
0.000131845609
-0.000083581814
-0.000059984837
0.000035005014
0.000000000000
0.000000000000
-0.000003650236
0.000018145199
0.000016409454
0.000009117554
-0.000007599640
-0.000031988054
-0.000036708168
-0.000026003146
0.000008860729
0.000055991885
0.000074434822
0.000069001605
0.000017780525
-0.000062897853
-0.000122348978
-0.000155648093
-0.000109784603
-0.000010833120
0.000115377321
0.000226139450
0.000271669806
0.000219896306
0.000087363839
-0.000103482179
-0.000291867201
-0.000414753995
-0.000448056321
-0.000344187360
-0.000157191627
0.000104500711
0.000363951462
0.000568362730
0.000679014969
0.000662777392
0.000530757413
0.000297689095
0.000009895531
-0.000290725049
-0.000559851720
-0.000756157762
-0.000863219868
-0.000865897902
-0.000771334718
-0.000594224417
-0.000357508778
-0.000084442098
0.000194368537
0.000461296784
0.000694158277
0.000881343462
0.001016146852
0.001095906994
0.001121533836
0.001101463293
0.001038767427
0.000945257401
0.000828276539
0.000694892744
0.000555076046
0.000412779177
0.000273702438
0.000143388860
0.000021258624
-0.000087135219
-0.000183278221
-0.000266395724
-0.000334553875
-0.000391615118
-0.000434466747
-0.000466258656
-0.000487379994
-0.000496385418
-0.000497830389
-0.000487329807
-0.000469625435
-0.000441976292
-0.000405262158
-0.000360887494
-0.000305657357
-0.000243589353
-0.000170773198
-0.000090346110
-0.000001486881
0.000095719841
0.000197497667
0.000306051437
0.000414291433
0.000523784682
0.000626860092
0.000721409735
0.000801677385
0.000860604438
0.000895764631
0.000896495550
0.000864247123
0.000788484494
0.000674916416
0.000518147625
0.000328717907
0.000110886877
-0.000119849076
-0.000347845631
-0.000554625349
-0.000716501659
-0.000817864596
-0.000836384457
-0.000769052375
-0.000608039809
-0.000372691571
-0.000079554535
0.000228037910
0.000512583556
0.000721683488
0.000819692204
0.000776376528
0.000592074741
0.000288628754
-0.000078724677
-0.000438652922
-0.000707512638
-0.000818175070
-0.000729350703
-0.000453222877
-0.000047783310
0.000378012599
0.000704600726
0.000821695234
0.000682597241
0.000313140485
-0.000169702952
-0.000603931225
-0.000820781116
-0.000727158058
-0.000337222685
0.000200880304
0.000669089185
0.000849524536
0.000645596326
0.000125293557
-0.000469034798
-0.000842981686
-0.000777328550
-0.000282228698
0.000398157339
0.000872983385
0.000842254282
0.000280700687
-0.000485759210
-0.000959325323
-0.000780921175
-0.000021297762
0.000804015862
0.001063190304
0.000494178398
-0.000505971208
-0.001124496595
-0.000778053501
0.000299366648
0.001160017963
0.000951948273
-0.000199362119
-0.001184303658
-0.000963287072
0.000282199368
0.001196159108
0.000696294678
-0.000706372210
-0.001349586764
-0.000385384469
0.001068213098
0.001224696647
-0.000059747855
-0.001026056141
-0.000395829068
0.000812680904
0.000742157044
-0.000524627045
-0.001053852384
-0.000035592864
0.000954505036
0.000464333954
-0.000589708466
-0.000598290813
0.000109082606
0.000158963819
-0.000329049407
-0.000204768772
0.000416960935
0.000456403375
-0.000102053011
-0.000389903646
-0.000205181547
0.000087918962
0.000294440538
0.000204300573
-0.000166985712
-0.000245594583
0.000049763632
0.000101641241
0.000000000000
0.000000000000
0.000015278237
0.000015948447
-0.000008895099
-0.000021568856
-0.000035215165
-0.000023472775
0.000009666978
0.000043456510
0.000072865078
0.000056634743
0.000005919086
-0.000062908795
-0.000128965588
-0.000130436455
-0.000081526700
0.000036202967
0.000154653512
0.000242844334
0.000234497089
0.000138178416
-0.000041057809
-0.000236765644
-0.000379407650
-0.000419676291
-0.000327255926
-0.000117233673
0.000148900284
0.000417631145
0.000592798505
0.000650206086
0.000553906590
0.000323794542
0.000020460553
-0.000317203082
-0.000598738780
-0.000793521160
-0.000851483881
-0.000779175621
-0.000581403856
-0.000296206596
0.000033024006
0.000365356470
0.000655711421
0.000874316959
0.001003010086
0.001032256020
0.000965911130
0.000819231441
0.000605106715
0.000348869799
0.000069466040
-0.000214610359
-0.000485214727
-0.000730724924
-0.000944363390
-0.001117116860
-0.001252317171
-0.001347507857
-0.001406423609
-0.001435486434
-0.001436440483
-0.001417334583
-0.001383179787
-0.001336306977
-0.001285866998
-0.001230576188
-0.001177303448
-0.001127812677
-0.001081953323
-0.001045758744
-0.001015098747
-0.000994934874
-0.000983640577
-0.000980352463
-0.000988239733
-0.001001789758
-0.001025205401
-0.001053631419
-0.001086942739
-0.001124880976
-0.001161074708
-0.001199161072
-0.001229191245
-0.001254512014
-0.001266310860