# vtk DataFile Version 2.0
TITLE = "Quad data"
ASCII
DATASET STRUCTURED_GRID
DIMENSIONS 201 201 1
POINTS 40401 FLOAT
-1.000000 -1.000000 0.000000
-1.000000 -0.990000 0.000000
-1.000000 -0.980000 0.000000
-1.000000 -0.970000 0.000000
-1.000000 -0.960000 0.000000
-1.000000 -0.950000 0.000000
-1.000000 -0.940000 0.000000
-1.000000 -0.930000 0.000000
-1.000000 -0.920000 0.000000
-1.000000 -0.910000 0.000000
-1.000000 -0.900000 0.000000
-1.000000 -0.890000 0.000000
-1.000000 -0.880000 0.000000
-1.000000 -0.870000 0.000000
-1.000000 -0.860000 0.000000
-1.000000 -0.850000 0.000000
-1.000000 -0.840000 0.000000
-1.000000 -0.830000 0.000000
-1.000000 -0.820000 0.000000
-1.000000 -0.810000 0.000000
-1.000000 -0.800000 0.000000
-1.000000 -0.790000 0.000000
-1.000000 -0.780000 0.000000
-1.000000 -0.770000 0.000000
-1.000000 -0.760000 0.000000
-1.000000 -0.750000 0.000000
-1.000000 -0.740000 0.000000
-1.000000 -0.730000 0.000000
-1.000000 -0.720000 0.000000
-1.000000 -0.710000 0.000000
-1.000000 -0.700000 0.000000
-1.000000 -0.690000 0.000000
-1.000000 -0.680000 0.000000
-1.000000 -0.670000 0.000000
-1.000000 -0.660000 0.000000
-1.000000 -0.650000 0.000000
-1.000000 -0.640000 0.000000
-1.000000 -0.630000 0.000000
-1.000000 -0.620000 0.000000
-1.000000 -0.610000 0.000000
-1.000000 -0.600000 0.000000
-1.000000 -0.590000 0.000000
-1.000000 -0.580000 0.000000
-1.000000 -0.570000 0.000000
-1.000000 -0.560000 0.000000
-1.000000 -0.550000 0.000000
-1.000000 -0.540000 0.000000
-1.000000 -0.530000 0.000000
-1.000000 -0.520000 0.000000
-1.000000 -0.510000 0.000000
-1.000000 -0.500000 0.000000
-1.000000 -0.490000 0.000000
-1.000000 -0.480000 0.000000
-1.000000 -0.470000 0.000000
-1.000000 -0.460000 0.000000
-1.000000 -0.450000 0.000000
-1.000000 -0.440000 0.000000
-1.000000 -0.430000 0.000000
-1.000000 -0.420000 0.000000
-1.000000 -0.410000 0.000000
-1.000000 -0.400000 0.000000
-1.000000 -0.390000 0.000000
-1.000000 -0.380000 0.000000
-1.000000 -0.370000 0.000000
-1.000000 -0.360000 0.000000
-1.000000 -0.350000 0.000000
-1.000000 -0.340000 0.000000
-1.000000 -0.330000 0.000000
-1.000000 -0.320000 0.000000
-1.000000 -0.310000 0.000000
-1.000000 -0.300000 0.000000
-1.000000 -0.290000 0.000000
-1.000000 -0.280000 0.000000
-1.000000 -0.270000 0.000000
-1.000000 -0.260000 0.000000
-1.000000 -0.250000 0.000000
-1.000000 -0.240000 0.000000
-1.000000 -0.230000 0.000000
-1.000000 -0.220000 0.000000
-1.000000 -0.210000 0.000000
-1.000000 -0.200000 0.000000
-1.000000 -0.190000 0.000000
-1.000000 -0.180000 0.000000
-1.000000 -0.170000 0.000000
-1.000000 -0.160000 0.000000
-1.000000 -0.150000 0.000000
-1.000000 -0.140000 0.000000
-1.000000 -0.130000 0.000000
-1.000000 -0.120000 0.000000
-1.000000 -0.110000 0.000000
-1.000000 -0.100000 0.000000
-1.000000 -0.090000 0.000000
-1.000000 -0.080000 0.000000
-1.000000 -0.070000 0.000000
-1.000000 -0.060000 0.000000
-1.000000 -0.050000 0.000000
-1.000000 -0.040000 0.000000
-1.000000 -0.030000 0.000000
-1.000000 -0.020000 0.000000
-1.000000 -0.010000 0.000000
-1.000000 0.000000 0.000000
-1.000000 0.010000 0.000000
-1.000000 0.020000 0.000000
-1.000000 0.030000 0.000000
-1.000000 0.040000 0.000000
-1.000000 0.050000 0.000000
-1.000000 0.060000 0.000000
-1.000000 0.070000 0.000000
-1.000000 0.080000 0.000000
-1.000000 0.090000 0.000000
-1.000000 0.100000 0.000000
-1.000000 0.110000 0.000000
-1.000000 0.120000 0.000000
-1.000000 0.130000 0.000000
-1.000000 0.140000 0.000000
-1.000000 0.150000 0.000000
-1.000000 0.160000 0.000000
-1.000000 0.170000 0.000000
-1.000000 0.180000 0.000000
-1.000000 0.190000 0.000000
-1.000000 0.200000 0.000000
-1.000000 0.210000 0.000000
-1.000000 0.220000 0.000000
-1.000000 0.230000 0.000000
-1.000000 0.240000 0.000000
-1.000000 0.250000 0.000000
-1.000000 0.260000 0.000000
-1.000000 0.270000 0.000000
-1.000000 0.280000 0.000000
-1.000000 0.290000 0.000000
-1.000000 0.300000 0.000000
-1.000000 0.310000 0.000000
-1.000000 0.320000 0.000000
-1.000000 0.330000 0.000000
-1.000000 0.340000 0.000000
-1.000000 0.350000 0.000000
-1.000000 0.360000 0.000000
-1.000000 0.370000 0.000000
-1.000000 0.380000 0.000000
-1.000000 0.390000 0.000000
-1.000000 0.400000 0.000000
-1.000000 0.410000 0.000000
-1.000000 0.420000 0.000000
-1.000000 0.430000 0.000000
-1.000000 0.440000 0.000000
-1.000000 0.450000 0.000000
-1.000000 0.460000 0.000000
-1.000000 0.470000 0.000000
-1.000000 0.480000 0.000000
-1.000000 0.490000 0.000000
-1.000000 0.500000 0.000000
-1.000000 0.510000 0.000000
-1.000000 0.520000 0.000000
-1.000000 0.530000 0.000000
-1.000000 0.540000 0.000000
-1.000000 0.550000 0.000000
-1.000000 0.560000 0.000000
-1.000000 0.570000 0.000000
-1.000000 0.580000 0.000000
-1.000000 0.590000 0.000000
-1.000000 0.600000 0.000000
-1.000000 0.610000 0.000000
-1.000000 0.620000 0.000000
-1.000000 0.630000 0.000000
-1.000000 0.640000 0.000000
-1.000000 0.650000 0.000000
-1.000000 0.660000 0.000000
-1.000000 0.670000 0.000000
-1.000000 0.680000 0.000000
-1.000000 0.690000 0.000000
-1.000000 0.700000 0.000000
-1.000000 0.710000 0.000000
-1.000000 0.720000 0.000000
-1.000000 0.730000 0.000000
-1.000000 0.740000 0.000000
-1.000000 0.750000 0.000000
-1.000000 0.760000 0.000000
-1.000000 0.770000 0.000000
-1.000000 0.780000 0.000000
-1.000000 0.790000 0.000000
-1.000000 0.800000 0.000000
-1.000000 0.810000 0.000000
-1.000000 0.820000 0.000000
-1.000000 0.830000 0.000000
-1.000000 0.840000 0.000000
-1.000000 0.850000 0.000000
-1.000000 0.860000 0.000000
-1.000000 0.870000 0.000000
-1.000000 0.880000 0.000000
-1.000000 0.890000 0.000000
-1.000000 0.900000 0.000000
-1.000000 0.910000 0.000000
-1.000000 0.920000 0.000000
-1.000000 0.930000 0.000000
-1.000000 0.940000 0.000000
-1.000000 0.950000 0.000000
-1.000000 0.960000 0.000000
-1.000000 0.970000 0.000000
-1.000000 0.980000 0.000000
-1.000000 0.990000 0.000000
-1.000000 1.000000 0.000000
-0.990000 -1.000000 0.000000
-0.990000 -0.990000 0.000000
-0.990000 -0.980000 0.000000
-0.990000 -0.970000 0.000000
-0.990000 -0.960000 0.000000
-0.990000 -0.950000 0.000000
-0.990000 -0.940000 0.000000
-0.990000 -0.930000 0.000000
-0.990000 -0.920000 0.000000
-0.990000 -0.910000 0.000000
-0.990000 -0.900000 0.000000
-0.990000 -0.890000 0.000000
-0.990000 -0.880000 0.000000
-0.990000 -0.870000 0.000000
-0.990000 -0.860000 0.000000
-0.990000 -0.850000 0.000000
-0.990000 -0.840000 0.000000
-0.990000 -0.830000 0.000000
-0.990000 -0.820000 0.000000
-0.990000 -0.810000 0.000000
-0.990000 -0.800000 0.000000
-0.990000 -0.790000 0.000000
-0.990000 -0.780000 0.000000
-0.990000 -0.770000 0.000000
-0.990000 -0.760000 0.000000
-0.990000 -0.750000 0.000000
-0.990000 -0.740000 0.000000
-0.990000 -0.730000 0.000000
-0.990000 -0.720000 0.000000
-0.990000 -0.710000 0.000000
-0.990000 -0.700000 0.000000
-0.990000 -0.690000 0.000000
-0.990000 -0.680000 0.000000
-0.990000 -0.670000 0.000000
-0.990000 -0.660000 0.000000
-0.990000 -0.650000 0.000000
-0.990000 -0.640000 0.000000
-0.990000 -0.630000 0.000000
-0.990000 -0.620000 0.000000
-0.990000 -0.610000 0.000000
-0.990000 -0.600000 0.000000
-0.990000 -0.590000 0.000000
-0.990000 -0.580000 0.000000
-0.990000 -0.570000 0.000000
-0.990000 -0.560000 0.000000
-0.990000 -0.550000 0.000000
-0.990000 -0.540000 0.000000
-0.990000 -0.530000 0.000000
-0.990000 -0.520000 0.000000
-0.990000 -0.510000 0.000000
-0.990000 -0.500000 0.000000
-0.990000 -0.490000 0.000000
-0.990000 -0.480000 0.000000
-0.990000 -0.470000 0.000000
-0.990000 -0.460000 0.000000
-0.990000 -0.450000 0.000000
-0.990000 -0.440000 0.000000
-0.990000 -0.430000 0.000000
-0.990000 -0.420000 0.000000
-0.990000 -0.410000 0.000000
-0.990000 -0.400000 0.000000
-0.990000 -0.390000 0.000000
-0.990000 -0.380000 0.000000
-0.990000 -0.370000 0.000000
-0.990000 -0.360000 0.000000
-0.990000 -0.350000 0.000000
-0.990000 -0.340000 0.000000
-0.990000 -0.330000 0.000000
-0.990000 -0.320000 0.000000
-0.990000 -0.310000 0.000000
-0.990000 -0.300000 0.000000
-0.990000 -0.290000 0.000000
-0.990000 -0.280000 0.000000
-0.990000 -0.270000 0.000000
-0.990000 -0.260000 0.000000
-0.990000 -0.250000 0.000000
-0.990000 -0.240000 0.000000
-0.990000 -0.230000 0.000000
-0.990000 -0.220000 0.000000
-0.990000 -0.210000 0.000000
-0.990000 -0.200000 0.000000
-0.990000 -0.190000 0.000000
-0.990000 -0.180000 0.000000
-0.990000 -0.170000 0.000000
-0.990000 -0.160000 0.000000
-0.990000 -0.150000 0.000000
-0.990000 -0.140000 0.000000
-0.990000 -0.130000 0.000000
-0.990000 -0.120000 0.000000
-0.990000 -0.110000 0.000000
-0.990000 -0.100000 0.000000
-0.990000 -0.090000 0.000000
-0.990000 -0.080000 0.000000
-0.990000 -0.070000 0.000000
-0.990000 -0.060000 0.000000
-0.990000 -0.050000 0.000000
-0.990000 -0.040000 0.000000
-0.990000 -0.030000 0.000000
-0.990000 -0.020000 0.000000
-0.990000 -0.010000 0.000000
-0.990000 0.000000 0.000000
-0.990000 0.010000 0.000000
-0.990000 0.020000 0.000000
-0.990000 0.030000 0.000000
-0.990000 0.040000 0.000000
-0.990000 0.050000 0.000000
-0.990000 0.060000 0.000000
-0.990000 0.070000 0.000000
-0.990000 0.080000 0.000000
-0.990000 0.090000 0.000000
-0.990000 0.100000 0.000000
-0.990000 0.110000 0.000000
-0.990000 0.120000 0.000000
-0.990000 0.130000 0.000000
-0.990000 0.140000 0.000000
-0.990000 0.150000 0.000000
-0.990000 0.160000 0.000000
-0.990000 0.170000 0.000000
-0.990000 0.180000 0.000000
-0.990000 0.190000 0.000000
-0.990000 0.200000 0.000000
-0.990000 0.210000 0.000000
-0.990000 0.220000 0.000000
-0.990000 0.230000 0.000000
-0.990000 0.240000 0.000000
-0.990000 0.250000 0.000000
-0.990000 0.260000 0.000000
-0.990000 0.270000 0.000000
-0.990000 0.280000 0.000000
-0.990000 0.290000 0.000000
-0.990000 0.300000 0.000000
-0.990000 0.310000 0.000000
-0.990000 0.320000 0.000000
-0.990000 0.330000 0.000000
-0.990000 0.340000 0.000000
-0.990000 0.350000 0.000000
-0.990000 0.360000 0.000000
-0.990000 0.370000 0.000000
-0.990000 0.380000 0.000000
-0.990000 0.390000 0.000000
-0.990000 0.400000 0.000000
-0.990000 0.410000 0.000000
-0.990000 0.420000 0.000000
-0.990000 0.430000 0.000000
[...]
POINT_DATA 40401
SCALARS phi FLOAT 1
LOOKUP_TABLE default
0.000000000000
0.000000000000
0.000000000000
0.000000000000
0.000000000000
0.000000000000
0.000000000000
0.000000000000
0.000000000000
0.000000000000
0.000000000000
0.000000000000
0.000000000000
0.000000000000
0.000000000000
0.000000000000
0.000000000000
0.000000000000
0.000000000000
0.000000000000
0.000000000000
0.000000000000
0.000000000000
0.000000000000
0.000000000000
0.000000000000
0.000000000000
0.000000000000
0.000000000000
0.000000000000
0.000000000000
0.000000000000
0.000000000000
0.000000000000
0.000000000000
0.000000000000
0.000000000000
0.000000000000
0.000000000000
0.000000000000
0.000000000000
0.000000000000
0.000000000000
0.000000000000
0.000000000000
0.000000000000
0.000000000000
0.000000000000
0.000000000000
0.000000000000
0.000000000000
0.000000000000
0.000000000000
0.000000000000
0.000000000000
0.000000000000
0.000000000000
0.000000000000
0.000000000000
0.000000000000
0.000000000000
0.000000000000
0.000000000000
0.000000000000
0.000000000000
0.000000000000
0.000000000000
0.000000000000
0.000000000000
0.000000000000
0.000000000000
0.000000000000
0.000000000000
0.000000000000
0.000000000000
0.000000000000
0.000000000000
0.000000000000
0.000000000000
0.000000000000
0.000000000000
0.000000000000
0.000000000000
0.000000000000
0.000000000000
0.000000000000
0.000000000000
0.000000000000
0.000000000000
0.000000000000
0.000000000000
0.000000000000
0.000000000000
0.000000000000
0.000000000000
0.000000000000
0.000000000000
0.000000000000
0.000000000000
0.000000000000
0.000000000000
0.000000000000
0.000000000000
0.000000000000
0.000000000000
0.000000000000
0.000000000000
0.000000000000
0.000000000000
0.000000000000
0.000000000000
0.000000000000
0.000000000000
0.000000000000
0.000000000000
0.000000000000
0.000000000000
0.000000000000
0.000000000000
0.000000000000
0.000000000000
0.000000000000
0.000000000000
0.000000000000
0.000000000000
0.000000000000
0.000000000000
0.000000000000
0.000000000000
0.000000000000
0.000000000000
0.000000000000
0.000000000000
0.000000000000
0.000000000000
0.000000000000
0.000000000000
0.000000000000
0.000000000000
0.000000000000
0.000000000000
0.000000000000
0.000000000000
0.000000000000
0.000000000000
0.000000000000
0.000000000000
0.000000000000
0.000000000000
0.000000000000
0.000000000000
0.000000000000
0.000000000000
0.000000000000
0.000000000000
0.000000000000
0.000000000000
0.000000000000
0.000000000000
0.000000000000
0.000000000000
0.000000000000
0.000000000000
0.000000000000
0.000000000000
0.000000000000
0.000000000000
0.000000000000
0.000000000000
0.000000000000
0.000000000000
0.000000000000
0.000000000000
0.000000000000
0.000000000000
0.000000000000
0.000000000000
0.000000000000
0.000000000000
0.000000000000
0.000000000000
0.000000000000
0.000000000000
0.000000000000
0.000000000000
0.000000000000
0.000000000000
0.000000000000
0.000000000000
0.000000000000
0.000000000000
0.000000000000
0.000000000000
0.000000000000
0.000000000000
0.000000000000
0.000000000000
0.000000000000
0.000000000000
0.000000000000
0.000000000000
0.000000000000
0.000000334130
0.000004688928
0.000001372413
-0.000000918468
-0.000001360805
-0.000005708676
-0.000007167748
-0.000001039405
0.000004449854
0.000010306314
0.000014288209
0.000008547651
-0.000003475029
-0.000011076831
-0.000028170040
-0.000023151376
-0.000015560297
0.000004415170
0.000026116308
0.000047747059
0.000041619501
0.000046852755
-0.000003316853
-0.000013945941
-0.000070896918
-0.000074251944
-0.000090088763
-0.000061676175
-0.000027390464
0.000026028351
0.000077213839
0.000119788861
0.000142292254
0.000140509627
0.000112116558
0.000060411341
-0.000006496306
-0.000082635801
-0.000155162486
-0.000218632662
-0.000263809128
-0.000288473236
-0.000289200023
-0.000268744581
-0.000228364751
-0.000173373436
-0.000108313875
-0.000038098386
0.000032374123
0.000099153971
0.000159437757
0.000210742240
0.000251993002
0.000283099912
0.000303658928
0.000315263816
0.000318407579
0.000314637823
0.000305469937
0.000291945697
0.000275532192
0.000257461791
0.000238235716
0.000219346824
0.000200752499
0.000183354180
0.000167485217
0.000152984386
0.000140639262
0.000129833906
0.000121053701
0.000114166700
0.000108791549
0.000105529336
0.000103386016
0.000103137681
0.000103913316
0.000105972284
0.000109065606
0.000112729217
0.000117251632
0.000121769538
0.000126645320
0.000131088032
0.000135119406
0.000138261280
0.000140102961
0.000140392220
0.000138507616
0.000134179640
0.000126928024
0.000116321341
0.000102320085
0.000084448015
0.000063269804
0.000038633071
0.000011734542
-0.000016809328
-0.000045272104
-0.000072025986
-0.000095105068
-0.000112115418
-0.000121436387
-0.000120791979
-0.000109811831
-0.000087696185
-0.000056289312
-0.000017472701
0.000024347351
0.000064571539
0.000097387714
0.000117486477
0.000120678282
0.000104746940
0.000070858890
0.000023270898
-0.000030098648
-0.000079188829
-0.000113494204
-0.000123916790
-0.000106614203
-0.000062701915
-0.000002200531
0.000061455180
0.000109327426
0.000128017436
0.000107737870
0.000053942099
-0.000020241892
-0.000088728621
-0.000128749380
-0.000121245042
-0.000067724649
0.000015625770
0.000094386675
0.000136077537
0.000117898667
0.000045717979
-0.000050937941
-0.000124654053
-0.000137266013
-0.000077166712
0.000027024296
0.000120111702
0.000147081564
0.000087316577
-0.000028072410
-0.000130202851
-0.000150625470
-0.000070859620
0.000061883696
0.000154443031
0.000135907300
0.000008872084
-0.000134910733
-0.000182056598
-0.000083339022
0.000087147851
0.000182833583
0.000105104173
-0.000090309051
-0.000222080782
-0.000146713233
0.000083291723
0.000239546986
0.000145924225
-0.000110535948
-0.000236960299
-0.000061583914
0.000234340223
0.000305623108
0.000090628659
-0.000055327841
0.000190655649
0.000625114137
0.000712845569
0.000318211124
-0.000060782121
-0.000001450300
0.000204602801
0.000047825319
-0.000283062328
-0.000151729691
0.000377481491
0.000494341045
-0.000016826263
-0.000359243987
-0.000105752974
0.000108258368
-0.000081296067
-0.000060409555
0.000328739850
0.000248078128
-0.000356614599
-0.000387754176
0.000224121581
0.000332494555
-0.000086322538
-0.000125810356
0.000000000000
0.000000000000
0.000005874566
0.000000607900
-0.000007291355
-0.000005252734
-0.000007287013
-0.000004549149
0.000008433486
0.000017242399
0.000017564430
0.000010708868
-0.000007218327
-0.000029359553
-0.000034752543
-0.000034921512
-0.000011286228
0.000026741744
0.000055157360
0.000073470938
0.000065747865
0.000022256646
-0.000026003758
-0.000089194472
-0.000126356001
-0.000125800858
-0.000101094070
-0.000018748099
0.000057014928
0.000152328659
0.000203977327
0.000228065969
0.000192547643
0.000117807128
0.000004081928
-0.000119894822
-0.000242111381
-0.000333145633
-0.000386493434
-0.000388027320
-0.000339494911
-0.000246563672
-0.000119188791
0.000027873682
0.000180731887
0.000324346017
0.000449597057
0.000545398895
0.000609901519
0.000639657103
0.000637084466
0.000605303937
0.000549862814
0.000475324606
0.000389320795
0.000295634214
0.000200392978
0.000107407985
0.000019301754
-0.000060863720
-0.000132141659
-0.000194088384
-0.000245599941
-0.000288301645
-0.000321757471
-0.000347204953
-0.000366069940
-0.000378226400
-0.000385994680
-0.000389229449
-0.000389080999
-0.000386725419
-0.000381510726
-0.000375445748
-0.000367367566
-0.000358517145
-0.000348740663
-0.000337630285
-0.000326222723
-0.000313065341
-0.000299295862
-0.000283745944
-0.000266492817
-0.000247505343
-0.000225566540
-0.000201625329
-0.000173945572
-0.000143638091
-0.000109614625
-0.000072397969
-0.000032412145
0.000010570283
0.000054398277
0.000099578391
0.000142631185
0.000183585655
0.000218433218
0.000246185267
0.000263326556
0.000267950120
0.000258199181
0.000232150794
0.000190815694
0.000133723973
0.000065680330
-0.000011017374
-0.000087813202
-0.000159584373
-0.000215904595
-0.000251022040
-0.000256743092
-0.000231077120
-0.000173266888
-0.000089565489
0.000010281539
0.000111276396
0.000196475776
0.000249233726
0.000256632272
0.000213605268
0.000124712767
0.000006077268
-0.000117534381
-0.000216255763
-0.000263248350
-0.000241752796
-0.000152643816
-0.000016509759
0.000128731013
0.000237922165
0.000272274955
0.000214698332
0.000079093619
-0.000089563008
-0.000228488616
-0.000279964101
-0.000216435825
-0.000057762258
0.000132131679
0.000266900684
0.000279514631
0.000154504464
-0.000051609796
-0.000237189206
-0.000297382530
-0.000192385192
0.000031010151
0.000244395372
0.000318836311
0.000194204725
-0.000058563984
-0.000280386170
-0.000310563904
-0.000113797151
0.000184401664
0.000362244104
0.000268018133
-0.000046571670
-0.000337067424
-0.000346220151
-0.000040621512
0.000325000601
0.000396734392
0.000066932091
-0.000377567124
-0.000485247689
-0.000112524814
0.000364543642
0.000402299021
-0.000085792933
-0.000551877443
-0.000422892368
0.000151133088
0.000393025436
-0.000104376718
-0.000732448940
-0.000591361984
0.000232873424
0.000680012290
0.000213357021
-0.000348444664
-0.000091997564
0.000476817276
0.000229491203
-0.000584249524
-0.000589140267
0.000352035388
0.000759093769
0.000066515334
-0.000418757129
-0.000003983698
0.000180905263
-0.000334597702
-0.000285414904
0.000541928139
0.000530798006
-0.000448691994
-0.000577028353
0.000235094737
0.000358410492
-0.000064148585
0.000000000000
0.000000000000
-0.000000215640
-0.000012567566
-0.000006289358
-0.000000764226
0.000005077859
0.000018874840
0.000020117198
0.000008967076
-0.000011597049
-0.000032799174
-0.000043772752
-0.000029464445
-0.000000774584
0.000041824056
0.000075268914
0.000082777188
0.000051298410
-0.000005725387
-0.000079587455
-0.000133194350
-0.000155029491
-0.000115275618
-0.000039437424
0.000078933288
0.000173722957
0.000256106773
0.000254767075
0.000204291327
0.000080015152
-0.000071943388
-0.000233138369
-0.000360446826
-0.000432432436
-0.000428503939
-0.000350975711
-0.000204049317
-0.000018405161
0.000190254719
0.000384296172
0.000546359968
0.000654330932
0.000700592308
0.000680359646
0.000601611980
0.000472007028
0.000306432587
0.000120626783
-0.000072490522
-0.000258186441
-0.000426626376
-0.000570589211
-0.000684916439
-0.000767533438
-0.000820347354
-0.000843120849
-0.000841751113
-0.000818804285
-0.000778886849
-0.000727295136
-0.000666839085
-0.000601772860
-0.000535732228
-0.000469472884
-0.000407389094
-0.000348726949
-0.000295814389
-0.000249320133
-0.000208399432
-0.000174988695
-0.000147315002
-0.000126152674
-0.000111487333
-0.000101711341
-0.000098696287
-0.000099873602
-0.000106861536
-0.000118480657
-0.000134185932
-0.000155091041
-0.000178555672
-0.000206777319
-0.000236719935
-0.000269512722
-0.000303484378
-0.000337209716
-0.000370954571
-0.000400723768
-0.000427962557
-0.000447327355
-0.000460095540
-0.000461287782
-0.000451021703
-0.000426244245
-0.000385877006
-0.000329933715
-0.000257108407
-0.000171172487
-0.000072108702
0.000032410762
0.000139869796
0.000239493422
0.000326234442
0.000388553828
0.000420882416
0.000415086284
0.000369005701
0.000283061755
0.000162714561
0.000020455544
-0.000129487525
-0.000264529483
-0.000367195369
-0.000414827747
-0.000399320090
-0.000313182028
-0.000170872989
0.000010018238
0.000191634407
0.000340249965
0.000416063266
0.000399663617
0.000284276756
0.000095097122
-0.000125998439
-0.000316840434
-0.000422289123
-0.000401512898
-0.000254683306
-0.000018872447
0.000228268855
0.000401880314
0.000429329071
0.000293388041
0.000034123668
-0.000245146281
-0.000429457417
-0.000426316215
-0.000229432048
0.000083944575
0.000362021525
0.000464756802
0.000322210793
-0.000000344946
-0.000337124225
-0.000490460519
-0.000358036580
0.000000522508
0.000371822674
0.000512167692
0.000308496176
-0.000124854444
-0.000489178720
-0.000506118278
-0.000126321194
0.000380457936
0.000611122319
0.000339655273
-0.000237681026
-0.000621814103
-0.000424335496
0.000225031643
0.000723046102
0.000543383976
-0.000187039646
-0.000718149687
-0.000442644277
0.000375183542
0.000787524552
0.000254682339
-0.000604115828
-0.000662846198
0.000262375359
0.001032960409
0.000623059472
-0.000416390050
-0.000622751873
0.000271756326
0.000861680640
0.000180822235
-0.000712765169
-0.000360640351
0.000659852254
0.000608379113
-0.000453731013
-0.000706355305
0.000242830443
0.000673304544
-0.000069369229
-0.000440284669
0.000202500370
0.000378964262
-0.000365829458
-0.000446532619
0.000408652104
0.000504983205
-0.000292829433
-0.000398639687
0.000135657508
0.000148572020
0.000000000000
0.000000000000
-0.000010771902
-0.000004743141
0.000010166215
0.000013243910
0.000020021705
0.000009020021
-0.000012446357
-0.000032153883
-0.000043013169
-0.000027232402
0.000010353105
0.000048743838
0.000081989111
0.000075746702
0.000031626385
-0.000036729875
-0.000116013822
-0.000151345070
-0.000140667267
-0.000069252228
0.000050011549
0.000168160639
0.000253574556
0.000273041660
0.000197393542
0.000069676149
-0.000123969292
-0.000285681250
-0.000417000370
-0.000451494579
-0.000391873648
-0.000240150865
-0.000023437914
0.000216823975
0.000440804395
0.000608090911
0.000691321822
0.000682943501
0.000577413372
0.000399043158
0.000165233376
-0.000091493098
-0.000344911310
-0.000567339091
-0.000744019409
-0.000857951501
-0.000908681269
-0.000895594035
-0.000825405039
-0.000708825667
-0.000557769233
-0.000383058686
-0.000198919813
-0.000013364220
0.000164502686
0.000327188250
0.000472921160
0.000596880224
0.000699400501
0.000781625330
0.000842774420
0.000887346735
0.000916036998
0.000931340359
0.000937474774
0.000934064383
0.000925987630
0.000913547825
0.000898271835
0.000883254603
0.000866634273
0.000852134283
0.000838022653
0.000825134367
0.000814568491
0.000803422905
0.000794800115
0.000784491705
0.000774508702
0.000762476293
0.000747007068
0.000728770208
0.000703235616
0.000672891982
0.000632372761
0.000583757411
0.000523475974
0.000451784183
0.000368468866
0.000272278094
0.000166497834
0.000050120414
-0.000070876963
-0.000195141269
-0.000315165408
-0.000425985146
-0.000519888985
-0.000588851829
-0.000626741739
-0.000625177202
-0.000582214244
-0.000493475158
-0.000364358388
-0.000198870793
-0.000011904474
0.000182523202
0.000361609506
0.000505486984
0.000591199884
0.000604029608
0.000534046175
0.000385610008
0.000173725045
-0.000071333247
-0.000310625508
-0.000499816886
-0.000598345184
-0.000579928623
-0.000437987896
-0.000196724388
0.000097615038
0.000373661250
0.000563032408
0.000604590958
0.000480591797
0.000211137761
-0.000126983917
-0.000435558644
-0.000605934683
-0.000574573328
-0.000335365723
0.000032362622
0.000398276985
0.000612522940
0.000579058596
0.000294485886
-0.000128495212
-0.000504451737
-0.000650240306
-0.000479018807
-0.000058338568
0.000407259672
0.000664538167
0.000556170300
0.000115928745
-0.000411894641
-0.000709501901
-0.000563238833
-0.000039638733
0.000536096499
0.000753061542
0.000422279453
-0.000258917337
-0.000785138728
-0.000715772252
-0.000052305342
0.000684790873
0.000838149818
0.000210464903
-0.000675349984
-0.000968372243
-0.000321240562
0.000674336372
0.000981500889
0.000222600617
-0.000797083058
-0.000886848819
0.000125250969
0.001038530960
0.000653472895
-0.000661915548
-0.001287876175
-0.000430287424
0.000732728017
0.000608973937
-0.000520444160
-0.000850259659
0.000221820232
0.001073062989
0.000335525363
-0.000882393785
-0.000730696989
0.000381934054
0.000567882975
-0.000277818313
-0.000453729750
0.000348370345
0.000550585717
-0.000240345556
-0.000531789476
0.000127421177
0.000418552416
-0.000058977822
-0.000242584193
0.000083227570
0.000132450974
-0.000083049442
-0.000060458524
0.000034854056
0.000000000000
0.000000000000
-0.000003414674
0.000017880932
0.000015978354
0.000008792389
-0.000007807387
-0.000031610310
-0.000035910741
-0.000025141607
0.000009345376
0.000055630716
0.000073186771
0.000067267025
0.000016323028
-0.000063236178
-0.000121197995
-0.000153006503
-0.000106712899
-0.000008233913
0.000116069732
0.000224479878
0.000267719024
0.000214679811
0.000082394918
-0.000106562105
-0.000291855941
-0.000411217257
-0.000441465534
-0.000335955182
-0.000148950585
0.000110594879
0.000366701373
0.000566609872
0.000673026336
0.000653117787
0.000519010891
0.000285459621
-0.000000939370
-0.000298706682
-0.000563850729
-0.000755695887
-0.000858294577
-0.000857125167
-0.000759599706
-0.000580748147
-0.000343533458
-0.000071192051
0.000205841383
0.000470139351
0.000699814563
0.000883471708
0.001014678919
0.001090968768
0.001113393963
0.001090527372
0.001025489580
0.000930114619
0.000811761331
0.000677437601
0.000537082693
0.000394595293
0.000255586466
0.000125574103
0.000003885839
-0.000103965003
-0.000199502632
-0.000282019433
-0.000349580575
-0.000406097975
-0.000448471649
-0.000479846968
-0.000500655024
-0.000509412456
-0.000510708955
-0.000500137361
-0.000482427464
-0.000454854159
-0.000418242546
-0.000374027055
-0.000318952889
-0.000257041148
-0.000184349306
-0.000103972879
-0.000015087616
0.000082292167
0.000184388406
0.000293468033
0.000402460615
0.000512954057
0.000617322119
0.000713422007
0.000795545528
0.000856547155
0.000894013035
0.000897155861
0.000867366793
0.000793967357
0.000682524741
0.000527508308
0.000339261031
0.000121957290
-0.000109088337
-0.000338208579
-0.000546995940
-0.000711576327
-0.000816216333
-0.000838222419
-0.000774265545
-0.000616064256
-0.000382575290
-0.000090012769
0.000218495943
0.000505397854
0.000718076314
0.000820319199
0.000781247069
0.000600333485
0.000298746749
-0.000068840837
-0.000431138690
-0.000704167453
-0.000819864587
-0.000735780899
-0.000462772671
-0.000057919322
0.000370214328
0.000701476859
0.000824324790
0.000690166624
0.000323189578
-0.000160725437
-0.000599279071
-0.000822307370
-0.000734272207
-0.000347113940
0.000192402891
0.000665670468
0.000852740424
0.000653901851
0.000134727156
-0.000463172885
-0.000843634241
-0.000784147604
-0.000291498467
0.000391558850
0.000872782219
0.000848511945
0.000289585226
-0.000479792278
-0.000960180975
-0.000788150962
-0.000030199239
0.000799572536
0.001066386522
0.000502721593
-0.000498749130
-0.001124710094
-0.000786183195
0.000289626814
0.001156947319
0.000958313232
-0.000189653868
-0.001181275852
-0.000970920303
0.000270819302
0.001192368086
0.000703184753
-0.000698500401
-0.001352739432
-0.000399097964
0.001057556649
0.001227483995
-0.000049750604
-0.001023672863
-0.000404288293
0.000806038724
0.000747173616
-0.000515706919
-0.001054505786
-0.000043955986
0.000952794055
0.000473633736
-0.000581148272
-0.000599010442
0.000105627072
0.000160548480
-0.000326378539
-0.000206952566
0.000413838745
0.000458550703
-0.000097155055
-0.000388730184
-0.000208595802
0.000084378679
0.000294748520
0.000207692067
-0.000165353543
-0.000247505968
0.000048307778
0.000102183701
0.000000000000
0.000000000000
0.000015043834
0.000015397949
-0.000008919413
-0.000021357007
-0.000034582863
-0.000022604704
0.000010047712
0.000043122966
0.000071689301
0.000055020220
0.000004728159
-0.000062989517
-0.000127467450
-0.000127810963
-0.000078623268
0.000037936219
0.000154338417
0.000240020802
0.000229927032
0.000133204230
-0.000044543119
-0.000237365911
-0.000376400801
-0.000413485456
-0.000319390081
-0.000109688789
0.000153948929
0.000418610914
0.000589129132
0.000642161226
0.000543169449
0.000312076626
0.000010296818
-0.000324155636
-0.000600957113
-0.000790698530
-0.000843851862
-0.000767930860
-0.000568051045
-0.000282597793
0.000045191950
0.000374556545
0.000660964420
0.000874999316
0.000999120329
0.001024131359
0.000954281170
0.000805018118
0.000589373881
0.000332637173
0.000053749900
-0.000228995115
-0.000497572202
-0.000740557082
-0.000951361311
-0.001121122048
-0.001253311121
-0.001345611928
-0.001401797612
-0.001428396414
-0.001427156386
-0.001406144154
-0.001370395006
-0.001322192752
-0.001270697746
-0.001214597662
-0.001160711541
-0.001110826417
-0.001064711307
-0.001028428643
-0.000997805649
-0.000977789951
-0.000966774714
-0.000963852430
-0.000972233571
-0.000986385495
-0.001010520099
-0.001039818523
-0.001074120495
-0.001113238816
-0.001150756347
-0.001190362532
-0.001222093455
-0.001249286429
-0.001263155039