# vtk DataFile Version 2.0
TITLE = "Quad data"
ASCII
DATASET STRUCTURED_GRID
DIMENSIONS 65 65 1
POINTS 4225 FLOAT
0.000000 0.000000 0.000000
0.000000 0.015625 0.000000
0.000000 0.031250 0.000000
0.000000 0.046875 0.000000
0.000000 0.062500 0.000000
0.000000 0.078125 0.000000
0.000000 0.093750 0.000000
0.000000 0.109375 0.000000
0.000000 0.125000 0.000000
0.000000 0.140625 0.000000
0.000000 0.156250 0.000000
0.000000 0.171875 0.000000
0.000000 0.187500 0.000000
0.000000 0.203125 0.000000
0.000000 0.218750 0.000000
0.000000 0.234375 0.000000
0.000000 0.250000 0.000000
0.000000 0.265625 0.000000
0.000000 0.281250 0.000000
0.000000 0.296875 0.000000
0.000000 0.312500 0.000000
0.000000 0.328125 0.000000
0.000000 0.343750 0.000000
0.000000 0.359375 0.000000
0.000000 0.375000 0.000000
0.000000 0.390625 0.000000
0.000000 0.406250 0.000000
0.000000 0.421875 0.000000
0.000000 0.437500 0.000000
0.000000 0.453125 0.000000
0.000000 0.468750 0.000000
0.000000 0.484375 0.000000
0.000000 0.500000 0.000000
0.000000 0.515625 0.000000
0.000000 0.531250 0.000000
0.000000 0.546875 0.000000
0.000000 0.562500 0.000000
0.000000 0.578125 0.000000
0.000000 0.593750 0.000000
0.000000 0.609375 0.000000
0.000000 0.625000 0.000000
0.000000 0.640625 0.000000
0.000000 0.656250 0.000000
0.000000 0.671875 0.000000
0.000000 0.687500 0.000000
0.000000 0.703125 0.000000
0.000000 0.718750 0.000000
0.000000 0.734375 0.000000
0.000000 0.750000 0.000000
0.000000 0.765625 0.000000
0.000000 0.781250 0.000000
0.000000 0.796875 0.000000
0.000000 0.812500 0.000000
0.000000 0.828125 0.000000
0.000000 0.843750 0.000000
0.000000 0.859375 0.000000
0.000000 0.875000 0.000000
0.000000 0.890625 0.000000
0.000000 0.906250 0.000000
0.000000 0.921875 0.000000
0.000000 0.937500 0.000000
0.000000 0.953125 0.000000
0.000000 0.968750 0.000000
0.000000 0.984375 0.000000
0.000000 1.000000 0.000000
0.015625 0.000000 0.000000
0.015625 0.015625 0.000000
0.015625 0.031250 0.000000
0.015625 0.046875 0.000000
0.015625 0.062500 0.000000
0.015625 0.078125 0.000000
0.015625 0.093750 0.000000
0.015625 0.109375 0.000000
0.015625 0.125000 0.000000
0.015625 0.140625 0.000000
0.015625 0.156250 0.000000
0.015625 0.171875 0.000000
0.015625 0.187500 0.000000
0.015625 0.203125 0.000000
0.015625 0.218750 0.000000
0.015625 0.234375 0.000000
0.015625 0.250000 0.000000
0.015625 0.265625 0.000000
0.015625 0.281250 0.000000
0.015625 0.296875 0.000000
0.015625 0.312500 0.000000
0.015625 0.328125 0.000000
0.015625 0.343750 0.000000
0.015625 0.359375 0.000000
0.015625 0.375000 0.000000
0.015625 0.390625 0.000000
0.015625 0.406250 0.000000
0.015625 0.421875 0.000000
0.015625 0.437500 0.000000
0.015625 0.453125 0.000000
0.015625 0.468750 0.000000
0.015625 0.484375 0.000000
0.015625 0.500000 0.000000
0.015625 0.515625 0.000000
0.015625 0.531250 0.000000
0.015625 0.546875 0.000000
0.015625 0.562500 0.000000
0.015625 0.578125 0.000000
0.015625 0.593750 0.000000
0.015625 0.609375 0.000000
0.015625 0.625000 0.000000
0.015625 0.640625 0.000000
0.015625 0.656250 0.000000
0.015625 0.671875 0.000000
0.015625 0.687500 0.000000
0.015625 0.703125 0.000000
0.015625 0.718750 0.000000
0.015625 0.734375 0.000000
0.015625 0.750000 0.000000
0.015625 0.765625 0.000000
0.015625 0.781250 0.000000
0.015625 0.796875 0.000000
0.015625 0.812500 0.000000
0.015625 0.828125 0.000000
0.015625 0.843750 0.000000
0.015625 0.859375 0.000000
0.015625 0.875000 0.000000
0.015625 0.890625 0.000000
0.015625 0.906250 0.000000
0.015625 0.921875 0.000000
0.015625 0.937500 0.000000
0.015625 0.953125 0.000000
0.015625 0.968750 0.000000
0.015625 0.984375 0.000000
0.015625 1.000000 0.000000
0.031250 0.000000 0.000000
0.031250 0.015625 0.000000
0.031250 0.031250 0.000000
0.031250 0.046875 0.000000
0.031250 0.062500 0.000000
0.031250 0.078125 0.000000
0.031250 0.093750 0.000000
0.031250 0.109375 0.000000
0.031250 0.125000 0.000000
0.031250 0.140625 0.000000
0.031250 0.156250 0.000000
0.031250 0.171875 0.000000
0.031250 0.187500 0.000000
0.031250 0.203125 0.000000
0.031250 0.218750 0.000000
0.031250 0.234375 0.000000
0.031250 0.250000 0.000000
0.031250 0.265625 0.000000
0.031250 0.281250 0.000000
0.031250 0.296875 0.000000
0.031250 0.312500 0.000000
0.031250 0.328125 0.000000
0.031250 0.343750 0.000000
0.031250 0.359375 0.000000
0.031250 0.375000 0.000000
0.031250 0.390625 0.000000
0.031250 0.406250 0.000000
0.031250 0.421875 0.000000
0.031250 0.437500 0.000000
0.031250 0.453125 0.000000
0.031250 0.468750 0.000000
0.031250 0.484375 0.000000
0.031250 0.500000 0.000000
0.031250 0.515625 0.000000
0.031250 0.531250 0.000000
0.031250 0.546875 0.000000
0.031250 0.562500 0.000000
0.031250 0.578125 0.000000
0.031250 0.593750 0.000000
0.031250 0.609375 0.000000
0.031250 0.625000 0.000000
0.031250 0.640625 0.000000
0.031250 0.656250 0.000000
0.031250 0.671875 0.000000
0.031250 0.687500 0.000000
0.031250 0.703125 0.000000
0.031250 0.718750 0.000000
0.031250 0.734375 0.000000
0.031250 0.750000 0.000000
0.031250 0.765625 0.000000
0.031250 0.781250 0.000000
0.031250 0.796875 0.000000
0.031250 0.812500 0.000000
0.031250 0.828125 0.000000
0.031250 0.843750 0.000000
0.031250 0.859375 0.000000
0.031250 0.875000 0.000000
0.031250 0.890625 0.000000
0.031250 0.906250 0.000000
0.031250 0.921875 0.000000
0.031250 0.937500 0.000000
0.031250 0.953125 0.000000
0.031250 0.968750 0.000000
0.031250 0.984375 0.000000
0.031250 1.000000 0.000000
0.046875 0.000000 0.000000
0.046875 0.015625 0.000000
0.046875 0.031250 0.000000
0.046875 0.046875 0.000000
0.046875 0.062500 0.000000
0.046875 0.078125 0.000000
0.046875 0.093750 0.000000
0.046875 0.109375 0.000000
0.046875 0.125000 0.000000
0.046875 0.140625 0.000000
0.046875 0.156250 0.000000
0.046875 0.171875 0.000000
0.046875 0.187500 0.000000
0.046875 0.203125 0.000000
0.046875 0.218750 0.000000
0.046875 0.234375 0.000000
0.046875 0.250000 0.000000
0.046875 0.265625 0.000000
0.046875 0.281250 0.000000
0.046875 0.296875 0.000000
0.046875 0.312500 0.000000
0.046875 0.328125 0.000000
0.046875 0.343750 0.000000
0.046875 0.359375 0.000000
0.046875 0.375000 0.000000
0.046875 0.390625 0.000000
0.046875 0.406250 0.000000
0.046875 0.421875 0.000000
0.046875 0.437500 0.000000
0.046875 0.453125 0.000000
0.046875 0.468750 0.000000
0.046875 0.484375 0.000000
0.046875 0.500000 0.000000
0.046875 0.515625 0.000000
0.046875 0.531250 0.000000
0.046875 0.546875 0.000000
0.046875 0.562500 0.000000
0.046875 0.578125 0.000000
0.046875 0.593750 0.000000
0.046875 0.609375 0.000000
0.046875 0.625000 0.000000
0.046875 0.640625 0.000000
0.046875 0.656250 0.000000
0.046875 0.671875 0.000000
0.046875 0.687500 0.000000
0.046875 0.703125 0.000000
0.046875 0.718750 0.000000
0.046875 0.734375 0.000000
0.046875 0.750000 0.000000
0.046875 0.765625 0.000000
0.046875 0.781250 0.000000
0.046875 0.796875 0.000000
0.046875 0.812500 0.000000
0.046875 0.828125 0.000000
0.046875 0.843750 0.000000
0.046875 0.859375 0.000000
0.046875 0.875000 0.000000
0.046875 0.890625 0.000000
0.046875 0.906250 0.000000
0.046875 0.921875 0.000000
0.046875 0.937500 0.000000
0.046875 0.953125 0.000000
0.046875 0.968750 0.000000
0.046875 0.984375 0.000000
0.046875 1.000000 0.000000
0.062500 0.000000 0.000000
0.062500 0.015625 0.000000
0.062500 0.031250 0.000000
0.062500 0.046875 0.000000
0.062500 0.062500 0.000000
0.062500 0.078125 0.000000
0.062500 0.093750 0.000000
0.062500 0.109375 0.000000
0.062500 0.125000 0.000000
0.062500 0.140625 0.000000
0.062500 0.156250 0.000000
0.062500 0.171875 0.000000
0.062500 0.187500 0.000000
0.062500 0.203125 0.000000
0.062500 0.218750 0.000000
0.062500 0.234375 0.000000
0.062500 0.250000 0.000000
0.062500 0.265625 0.000000
0.062500 0.281250 0.000000
0.062500 0.296875 0.000000
0.062500 0.312500 0.000000
0.062500 0.328125 0.000000
0.062500 0.343750 0.000000
0.062500 0.359375 0.000000
0.062500 0.375000 0.000000
0.062500 0.390625 0.000000
0.062500 0.406250 0.000000
0.062500 0.421875 0.000000
0.062500 0.437500 0.000000
0.062500 0.453125 0.000000
0.062500 0.468750 0.000000
0.062500 0.484375 0.000000
0.062500 0.500000 0.000000
0.062500 0.515625 0.000000
0.062500 0.531250 0.000000
0.062500 0.546875 0.000000
0.062500 0.562500 0.000000
0.062500 0.578125 0.000000
0.062500 0.593750 0.000000
0.062500 0.609375 0.000000
0.062500 0.625000 0.000000
0.062500 0.640625 0.000000
0.062500 0.656250 0.000000
0.062500 0.671875 0.000000
0.062500 0.687500 0.000000
0.062500 0.703125 0.000000
0.062500 0.718750 0.000000
0.062500 0.734375 0.000000
0.062500 0.750000 0.000000
0.062500 0.765625 0.000000
0.062500 0.781250 0.000000
0.062500 0.796875 0.000000
0.062500 0.812500 0.000000
0.062500 0.828125 0.000000
0.062500 0.843750 0.000000
0.062500 0.859375 0.000000
0.062500 0.875000 0.000000
0.062500 0.890625 0.000000
0.062500 0.906250 0.000000
0.062500 0.921875 0.000000
0.062500 0.937500 0.000000
0.062500 0.953125 0.000000
0.062500 0.968750 0.000000
0.062500 0.984375 0.000000
0.062500 1.000000 0.000000
0.078125 0.000000 0.000000
0.078125 0.015625 0.000000
0.078125 0.031250 0.000000
0.078125 0.046875 0.000000
0.078125 0.062500 0.000000
0.078125 0.078125 0.000000
0.078125 0.093750 0.000000
0.078125 0.109375 0.000000
0.078125 0.125000 0.000000
0.078125 0.140625 0.000000
0.078125 0.156250 0.000000
0.078125 0.171875 0.000000
0.078125 0.187500 0.000000
0.078125 0.203125 0.000000
0.078125 0.218750 0.000000
0.078125 0.234375 0.000000
0.078125 0.250000 0.000000
0.078125 0.265625 0.000000
0.078125 0.281250 0.000000
0.078125 0.296875 0.000000
0.078125 0.312500 0.000000
0.078125 0.328125 0.000000
0.078125 0.343750 0.000000
0.078125 0.359375 0.000000
0.078125 0.375000 0.000000
0.078125 0.390625 0.000000
0.078125 0.406250 0.000000
0.078125 0.421875 0.000000
0.078125 0.437500 0.000000
0.078125 0.453125 0.000000
0.078125 0.468750 0.000000
0.078125 0.484375 0.000000
0.078125 0.500000 0.000000
0.078125 0.515625 0.000000
0.078125 0.531250 0.000000
0.078125 0.546875 0.000000
0.078125 0.562500 0.000000
0.078125 0.578125 0.000000
0.078125 0.593750 0.000000
0.078125 0.609375 0.000000
0.078125 0.625000 0.000000
[...]
POINT_DATA 4225
SCALARS phi FLOAT 1
LOOKUP_TABLE default
0.000000000000
0.000000059605
0.000000953674
0.000004827976
0.000015258789
0.000037252903
0.000077247620
0.000143110752
0.000244140625
0.000391066074
0.000596046448
0.000872671604
0.001235961914
0.001702368259
0.002289772034
0.003017485142
0.003906250000
0.004978239536
0.006257057190
0.007767736912
0.009536743164
0.011591970921
0.013962745667
0.016679823399
0.019775390625
0.023283064365
0.027237892151
0.031676352024
0.036636352539
0.042157232761
0.048279762268
0.055046141148
0.062500000000
0.070686399937
0.079651832581
0.089444220066
0.100112915039
0.111708700657
0.124283790588
0.137891829014
0.152587890625
0.168428480625
0.185471534729
0.203776419163
0.223403930664
0.244416296482
0.266877174377
0.290851652622
0.316406250000
0.343608915806
0.372529029846
0.403237402439
0.435806274414
0.470309317112
0.506821632385
0.545419752598
0.586181640625
0.629186689854
0.674515724182
0.722250998020
0.772476196289
0.825276434422
0.880738258362
0.938949644566
1.000000000000
0.000000059605
0.000000597140
0.000001134079
0.000003862717
0.000012380902
0.000031706970
0.000068285114
0.000129987600
0.000226115784
0.000367400643
0.000566003078
0.000835514087
0.001190954887
0.001648776989
0.002226862250
0.002944522916
0.003822501645
0.004882971536
0.006149536138
0.007647229468
0.009402516022
0.011443290779
0.013798879211
0.016500037288
0.019578951483
0.023069238777
0.027005946657
0.031425553125
0.036365966697
0.041866526406
0.047968001799
0.054712592947
0.062143930436
0.070307075373
0.079248519386
0.089016184621
0.099659423745
0.111229019942
0.123777186915
0.137357568882
0.152025240576
0.167836707243
0.184849904637
0.203124199020
0.222720387155
0.243700696306
0.266128784226
0.290069739156
0.315590079813
0.342757755380
0.371642145495
0.402314060233
0.434845740083
0.469310855922
0.505784508973
0.544343230754
0.585064983001
0.628029157549
0.673316576154
0.721009490193
0.771191580137
0.823947954526
0.879365147759
0.937531114723
0.998535215855
0.000000953674
0.000001134079
-0.000000879599
-0.000002895658
-0.000001309612
0.000008903048
0.000034191207
0.000082430556
0.000162924958
0.000286407237
0.000465039667
0.000712414274
0.001043553046
0.001474908070
0.002024361632
0.002711226290
0.003556244929
0.004581590800
0.005810867554
0.007269109264
0.008982780452
0.010979776098
0.013289421657
0.015942473070
0.018971116772
0.022408969699
0.026291079298
0.030653923527
0.035535410863
0.040974880303
0.047013101370
0.053692274110
0.061056029099
0.069149427439
0.078018960761
0.087712551226
0.098279551520
0.109770744856
0.122238344970
0.135735996120
0.150318773082
0.166043181144
0.182967156103
0.201150064260
0.220652702406
0.241537297823
0.263867508263
0.287708421940
0.313126557515
0.340189864071
0.368967721090
0.399530938425
0.431951756250
0.466303845013
0.502662305363
0.541103668046
0.581705893768
0.624548372993
0.669711925629
0.717278800549
0.767332674796
0.819958652218
0.875243261043
0.933274449517
0.994141578674
0.000004827976
0.000003862717
-0.000002895658
-0.000013263270
-0.000023636218
-0.000028988178
-0.000022867996
0.000002602090
0.000056727660
0.000150242907
0.000295311173
0.000505525316
0.000795907957
0.001182911667
0.001684419092
0.002319743054
0.003109626624
0.004076243180
0.005243196452
0.006635520556
0.008279680024
0.010203569828
0.012436515398
0.015009272639
0.017954027943
0.021304398201
0.025095430811
0.029363603688
0.034146825267
0.039484434510
0.045417200910
0.051987324493
0.059238435820
0.067215595990
0.075965296638
0.085535459938
0.095975438597
0.107336015858
0.119669405491
0.133029251797
0.147470629596
0.163050044222
0.179825431520
0.197856157831
0.217203019986
0.237928245288
0.260095491500
0.283769846823
0.309017829877
0.335907389665
0.364507905546
0.394890187180
0.427126474482
0.461290437538
0.497457176514
0.535703221521
0.576106532438
0.618746498656
0.663703938715
0.711061099773
0.760901656800
0.813310711377
0.868374789913
0.926181841245
0.986821234226
0.000015258789
0.000012380902
-0.000001309612
-0.000023636218
-0.000050998002
-0.000078369220
-0.000099298219
-0.000105906363
-0.000088887149
-0.000037505543
0.000060402515
0.000218430464
0.000451601390
0.000776368220
0.001210613871
0.001773651361
0.002486223899
0.003370504950
0.004450098292
0.005750038060
0.007296788780
0.009118245402
0.011243733319
0.013704008390
0.016531256958
0.019759095863
0.023422572451
0.027558164588
0.032203780667
0.037398759610
0.043183870880
0.049601314480
0.056694720959
0.064509151411
0.073091097475
0.082488481339
0.092750655732
0.103928403926
0.116073939733
0.129240907494
0.143484382079
0.158860868873
0.175428303772
0.193246053169
0.212374913937
0.232877113418
0.254816309396
0.278257590080
0.303267474069
0.329913910320
0.358266278100
0.388395386937
0.420373476547
0.454274216747
0.490172707344
0.528145477987
0.568270487971
0.610627125971
0.655296209688
0.702359985353
0.751902127063
0.804007735902
0.858763338859
0.916256887755
0.976577758789
0.000037252903
0.000031706970
0.000008903048
-0.000028988178
-0.000078369220
-0.000134215978
-0.000190077371
-0.000238074755
-0.000268901361
-0.000271821792
-0.000234671623
-0.000143857084
0.000015645188
0.000260288341
0.000607955458
0.001077959674
0.001691044276
0.002469382770
0.003436578947
0.004617666931
0.006039111223
0.007728806729
0.009716078793
0.012031683218
0.014707806288
0.017778064784
0.021277505995
0.025242607735
0.029711278347
0.034722856717
0.040318112272
0.046539244993
0.053429885414
0.061035094623
0.069401364266
0.078576616544
0.088610204210
0.099552910569
0.111456949472
0.124375965309
0.138365033000
0.153480657991
0.169780776234
0.187324754181
0.206173388763
0.226388907368
0.248034967826
0.271176658371
0.295880497613
0.322214434495
0.350247848243
0.380051548310
0.411697774290
0.445260195837
0.480813912537
0.518435453762
0.558202778476
0.600195274988
0.644493760638
0.691180481387
0.740339111330
0.792054752118
0.846413932386
0.903504607381
0.963416159153
0.000077247620
0.000068285114
0.000034191207
-0.000022867996
-0.000099298219
-0.000190077371
-0.000288755495
-0.000387454505
-0.000476867843
-0.000546260141
-0.000583466912
-0.000574894288
-0.000505518812
-0.000358887254
-0.000117116469
0.000239106713
0.000730525589
0.001379313658
0.002209074683
0.003244842749
0.004513082300
0.006041688183
0.007859985676
0.009998730513
0.012490108909
0.015367737577
0.018666663745
0.022423365166
0.026675750133
0.031463157488
0.036826356626
0.042807547499
0.049450360628
0.056799857094
0.064902528550
0.073806297210
0.083560515855
0.094215967824
0.105824867010
0.118440857855
0.132119015338
0.146915844967
0.162889282762
0.180098695242
0.198604879409
0.218470062717
0.239757903057
0.262533488714
0.286863338342
0.312815400910
0.340459055654
0.369865112012
0.401105809546
0.434254817849
0.469387236424
0.506579594547
0.545909851086
0.587457394289
0.631303041521
0.677529038960
0.726219061253
0.777458211179
0.831333019381
0.887931444319
0.947342872620
0.000143110752
0.000129987600
0.000082430556
0.000002602090
-0.000105906363
-0.000238074755
-0.000387454505
-0.000546168404
-0.000704910434
-0.000852945543
-0.000978109428
-0.001066808326
-0.001104018843
-0.001073287795
-0.000956732084
-0.000735038581
-0.000387464044
0.000108164966
0.000775452143
0.001639431498
0.002726567395
0.004064754600
0.005683318305
0.007613014164
0.009886028311
0.012535977382
0.015597908534
0.019108299459
0.023105058395
0.027627524133
0.032716466033
0.038414084021
0.044764008599
0.051811300846
0.059602452418
0.068185385546
0.077609453038
0.087925438270
0.099185555182
0.111443448271
0.124754192581
0.139174293688
0.154761687690
0.171575741187
0.189677251260
0.209128445450
0.229992981728
0.252335948461
0.276223864375
0.301724678508
0.328907770157
0.357843948814
0.388605454085
0.421265955605
0.455900552926
0.492585775387
0.531399581961
0.572421361079
0.615731930424
0.661413536711
0.709549855468
0.760225990847
0.813528475535
0.869545270832
0.928365767002
0.000244140625
0.000226115784
0.000162924958
0.000056727660
-0.000088887149
-0.000268901361
-0.000476867843
-0.000704910434
-0.000943723855
-0.001182573574
-0.001409295655
-0.001610296602
-0.001770553220
-0.001873612486
-0.001901591435
-0.001835177063
-0.001653626239
-0.001334765637
-0.000854991670
-0.000189270437
0.000688862323
0.001807301270
0.003195371496
0.004883828556
0.006904858494
0.009292077861
0.012080533737
0.015306703742
0.019008496055
0.023225249418
0.027997733148
0.033368147146
0.039380121895
0.046078718468
0.053510428526
0.061723174319
0.070766308683
0.080690615032
0.091548307360
0.103393030221
0.116279858730
0.130265298541
0.145407285835
0.161765187306
0.179399800132
0.198373351953
0.218749500845
0.240593335281
0.263971374094
0.288951566433
0.315603291704
0.343997359513
0.374206009588
0.406302911700
0.440363165560
0.476463300707
0.514681276381
0.555096481379
0.597789733905
0.642843281413
0.690340800478
0.740367396702
0.793009604710
0.848355388277
0.906494140625
0.000391066074
0.000367400643
0.000286407237
0.000150242907
-0.000037505543
-0.000271821792
-0.000546260141
-0.000852945543
-0.001182573574
-0.001524410353
-0.001866292442
-0.002194626734
-0.002494390343
-0.002749130501
-0.002940964456
-0.003050579394
-0.003057232355
-0.002938750168
-0.002671529394
-0.002230536271
-0.001589306670
-0.000719946056
0.000406870545
0.001821898578
0.003557323982
0.005646763215
0.008125263271
0.011029301696
0.014396786602
0.018267056680
0.022680881203
0.027680460041
0.033309423659
0.039612833124
0.046637180104
0.054430386866
0.063041806276
0.072522221794
0.082923847463
0.094300327905
0.106706738308
0.120199584413
0.134836802496
0.150677759351
0.167783252269
0.186215509008
0.206038187768
0.227316377156
0.250116596143
0.274506794024
0.300556350362
0.328336074934
0.357918207657
0.389376418517
0.422785807477
0.458222904388
0.495765668877
0.535493490240
0.577487187331
0.621829008462
0.668602631319
0.717893162937
0.769787139732
0.824372527633
0.881738722324
0.000596046448
0.000566003078
0.000465039667
0.000295311173
0.000060402515
-0.000234671623
-0.000583466912
-0.000978109428
-0.001409295655
-0.001866292442
-0.002336936938
-0.002807636512
-0.003263368672
-0.003687680975
-0.004062690955
-0.004369086039
-0.004586123489
-0.004691630331
-0.004662003307
-0.004472208823
-0.004095782905
-0.003504831165
-0.002670028761
-0.001560620374
-0.000144420176
0.001612188185
0.003744251611
0.006288247569
0.009282084100
0.012765099837
0.016778064011
0.021363176458
0.026564067623
0.032425798568
0.038994860966
0.046319177105
0.054448099882
0.063432412802
0.073324329965
0.084177496063
0.096046986364
0.108989306702
0.123062393456
0.138325613533
0.154839764349
0.172667073797
0.191871200221
0.212517232383
0.234671689422
0.258402520815
0.283779106323
0.310872255941
0.339754209833
0.370498638264
0.403180641529
0.437876749868
0.474664923386
0.513624551966
0.554836455192
0.598382882282
0.644347512047
0.692815452894
0.743873242872
0.797608849798
0.854111671448
0.000872671604
0.000835514087
0.000712414274
0.000505525316
0.000218430464
-0.000143857084
-0.000574894288
-0.001066808326
-0.001610296602
-0.002194626734
-0.002807636512
-0.003435733843
-0.004063896683
-0.004675672979
-0.005253180594
-0.005777107251
-0.006226710469
-0.006579817507
-0.006812825320
-0.006900700504
-0.006816979265
-0.006533767375
-0.006021740142
-0.005250142383
-0.004186788395
-0.002798061936
-0.001048916202
0.001097126185
0.003677973196
0.006732963401
0.010302865986
0.014429880750
0.019157638122
0.024531199154
0.030597055526
0.037403129547
0.044998774149
0.053434772881
0.062763339906
0.073038119989
0.084314188484
0.096648051323
0.110097644996
0.124722336536
0.140582923493
0.157741633909
0.176262126292
0.196209489579
0.217650243104
0.240652336554
0.265285149923
0.291619493466
0.319727607637
0.349683163037
0.381561260345
0.415438430253
0.451392633403
0.489503260318
0.529851131351
0.572518496643
0.617589036104
0.665147859430
0.715281506158
0.768077945772
0.823626577854
0.001235961914
0.001190954887
0.001043553046
0.000795907957
0.000451601390
0.000015645188
-0.000505518812
-0.001104018843
-0.001770553220
-0.002494390343
-0.003263368672
-0.004063896683
-0.004880952828
-0.005698085478
-0.006497412869
-0.007259623052
-0.007963973837
-0.008588292745
-0.009108976965
-0.009500993310
-0.009737878180
-0.009791737523
-0.009633246812
-0.009231651008
-0.008554764541
-0.007568971289
-0.006239224551
-0.004529047040
-0.002400530863
0.000185662489
0.003270302150
0.006895587886
0.011105150103
0.015944049848
0.021458778807
0.027697259309
0.034708844323
0.042544317446
0.051255892906
0.060897215542
0.071523360801
0.083190834718
0.095957573903
0.109882945521
0.125027747268
0.141454207348
0.159225984447
0.178408167698
0.199067276648
0.221271261219
0.245089501668
0.270592808540
0.297853422619
0.326945014877
0.357942686418
0.390922968429
0.425963822123
0.463144638691
0.502546239269
0.544250874909
0.588342226575
0.634905405168
0.684026951578
0.735794836771
0.790298461914
0.001702368259
0.001648776989
0.001474908070
0.001182911667
0.000776368220
0.000260288341
-0.000358887254
-0.001073287795
-0.001873612486
-0.002749130501
-0.003687680975
-0.004675672979
-0.005698085478
-0.006738467297
-0.007778937072
-0.008800183206
-0.009781463825
-0.010700606736
-0.011534009381
-0.012256638805
-0.012842031616
-0.013262293955
-0.013488101465
-0.013488699264
-0.013231901922
-0.012684093439
-0.011810227226
-0.010573826090
-0.008936982217
-0.006860357165
-0.004303181850
-0.001223256542
0.002423049143
0.006680796244
0.011596476454
0.017218012126
0.023594756263
0.030777492514
0.038818435172
0.047771229156
0.057690950007
0.068634103872
0.080658627482
0.093823888143
0.108190683707
0.123821242551
0.140779223550
0.159129716047
0.178939239819
0.200275745045
0.223208612266
0.247808652341
0.274148106408
0.302300645839
0.332341372191
0.364346817166
0.398394942569
0.434565140268
0.472938232176
0.513596470227
0.556623536387
0.602104542677
0.650126031218
0.700775974306
0.754143774509
0.002289772034
0.002226862250
0.002024361632
0.001684419092
0.001210613871
0.000607955458
-0.000117116469
-0.000956732084
-0.001901591435
-0.002940964456
-0.004062690955
-0.005253180594
-0.006497412869
-0.007778937072
-0.009079872253
-0.010380907187
-0.011661300334
-0.012898879798
-0.014070043291
-0.015149758102
-0.016111561061
-0.016927558508
-0.017568426265
-0.018003409614
-0.018200323271
-0.018125551363
-0.017744047416
-0.017019334333
-0.015913504384
-0.014387219193
-0.012399709729
-0.009908776298
-0.006870788540
-0.003240685423
0.001028024754
0.005983264366
0.011674386453
0.018152174717
0.025468843516
0.033678037855
0.042834833370
0.052995736321
0.064218683570
0.076563042566
0.090089611325
0.104860618403
0.120939722876
0.138392014307
0.157284012719
0.177683668558
0.199660362665
0.223284906231
0.248629540766
0.275767938058
0.304775200130
0.335727859213
0.368703877706
0.403782648150
0.441044993213
0.480573165679
0.522450848457
0.566763154604
0.613596627365
0.663039240234
0.715180397034
0.003017485142
0.002944522916
0.002711226290
0.002319743054
0.001773651361
0.001077959674
0.000239106713
-0.000735038581
-0.001835177063
-0.003050579394
-0.004369086039
-0.005777107251
-0.007259623052
-0.008800183206
-0.010380907187
-0.011982484152
-0.013584172901
-0.015163801848
-0.016697768984
-0.018161041850
-0.019527157505
-0.020768222493
-0.021854912826
-0.022756473950
-0.023440720732
-0.023874037431
-0.024021377687
-0.023846264505
-0.023310790239
-0.022375616579
-0.020999974549
-0.019141664492
-0.016757056071
-0.013801088263
-0.010227269356
-0.005987676956
-0.001032957983
0.004687671317
0.011226425372
0.018636949269
0.026974318745
0.036295040174
0.046657050551
0.058119717476
0.070743839130
0.084591644257
0.099726792137
0.116214372563
0.134120905809
0.153514342602
0.174464064090
0.197040881807
0.221317037645
0.247366203812
0.275263482807
0.305085407386
0.336909940539
0.370816475462
0.406885835554
0.445200274403
0.485843475804
0.528900553771
0.574458052576
0.622603946801
0.673427641392
0.003906250000
0.003822501645
0.003556244929
0.003109626624
0.002486223899
0.001691044276
0.000730525589
-0.000387464044
-0.001653626239
-0.003057232355
-0.004586123489
-0.006226710469
-0.007963973837
-0.009781463825
-0.011661300334
-0.013584172901
-0.015529340674
-0.017474632378
-0.019396446290
-0.021269750207
-0.023068081418
-0.024763546682
-0.026326822196
-0.027727153579
-0.028932355845
-0.029908813392
-0.030621479975
-0.031033878699
-0.031108102002
-0.030804811646
-0.030083238706
-0.028901183564
-0.027215015905
-0.024979674714
-0.022148668273
-0.018674074162
-0.014506539266
-0.009595279776
-0.003888081195
0.002668701648
0.010130144590
0.018552754124
0.027994467379
0.038514652104
0.050174106651
0.063035059953
0.077161171502
0.092617531321
0.109470659943
0.127788508376
0.147640458083
0.169097320944
0.192231339233
0.217116185583
0.243826962961
0.272440204645
0.303033874197
0.335687365449
0.370481502494
0.407498539684
0.446822161635
0.488537483248
0.532731049737
0.579490836666
0.628906250000
0.004978239536
0.004882971536
0.004581590800
0.004076243180
0.003370504950
0.002469382770
0.001379313658
0.000108164966
-0.001334765637
-0.002938750168
-0.004691630331
-0.006579817507
-0.008588292745
-0.010700606736
-0.012898879798
-0.015163801848
-0.017474632378
-0.019809200427
-0.022143904556
-0.024453712818
-0.026712162738
-0.028891361283
-0.030961984841
-0.032893279201
-0.034653059531
-0.036207710360
-0.037522185563
-0.038560008343
-0.039283271225
-0.039652636039
-0.039627333912
-0.039165165267
-0.038222499809
-0.036754276531
-0.034714003708
-0.032053758898
-0.028724188947
-0.024674509992
-0.019852507469
-0.014204536122
-0.007675520012
-0.000208952530
0.008253103587
0.017770016240
0.028402583952
0.040213035847
0.053265031624
0.067623661544
0.083355446393
0.100528337467
0.119211716539
0.139476395835
0.161394618008
0.185040056109
0.210487813566
0.237814424159
0.267097852007
0.298417491547
0.331854167532
0.367490135027
0.405409079416
0.445696116415
0.488437792098
0.533722082927
0.581638395786
0.006257057190
0.006149536138
0.005810867554
0.005243196452
0.004450098292
0.003436578947
0.002209074683
0.000775452143
-0.000854991670
-0.002671529394
-0.004662003307
-0.006812825320
-0.009108976965
-0.011534009381
-0.014070043291
-0.016697768984
-0.019396446290
-0.022143904556
-0.024916542623
-0.027689328799
-0.030435800841
-0.033128065923
-0.035736800624
-0.038231250900
-0.040579232070
-0.042747128796
-0.044699895068
-0.046401054192
-0.047812698773
-0.048895490710
-0.049608661184
-0.049910010653
-0.049755908848
-0.049101294767
-0.047899676678
-0.046103132116
-0.043662307890
-0.040526420085
-0.036643254069
-0.031959164501
-0.026419075343
-0.019966479871
-0.012543440688
-0.004090589743
0.005452871657
0.016149172822
0.028061973663
0.041256364669
0.055798866884
0.071757431882
0.089201441745
0.108201709037
0.128830476782
0.151161418439
0.175269637878
0.201231669369
0.229125477556
0.259030457453
0.291027434433
0.325198664225
0.361627832925
0.400400056999
0.441601883310
0.485321289133
0.531647682190
0.007767736912
0.007647229468
0.007269109264
0.006635520556
0.005750038060
0.004617666931
0.003244842749
0.001639431498
-0.000189270437
-0.002230536271
-0.004472208823
-0.006900700504
-0.009500993310
-0.012256638805
-0.015149758102
-0.018161041850
-0.021269750207
-0.024453712818
-0.027689328799
-0.030951566708
-0.034213964525
-0.037448629630
-0.040626238787
-0.043716038117
-0.046685843088
-0.049502038490
-0.052129578429
-0.054531986305
-0.056671354809
-0.058508345903
-0.060002190823
-0.061110690061
-0.061790213371
-0.061995699758
-0.061680657483
-0.060797164060
-0.059295866259
-0.057125980116
-0.054235290930
-0.050570153280
-0.046075491030
-0.040694797342
-0.034370134689
-0.027042134872
-0.018649999034
-0.009131497679
0.001577029309
0.013540672644
0.026825953618
0.041500824081
0.057634666412
0.075298293506
0.094563948743
0.115505305973
0.138197469494
0.162716974036
0.189141784746
0.217551297176
0.248026337278
0.280649161402
0.315503456296
0.352674339119
0.392248357448
0.434313489303
0.478959143162
0.009536743164
0.009402516022
0.008982780452
0.008279680024