# vtk DataFile Version 2.0
TITLE = "Quad data"
ASCII
DATASET STRUCTURED_GRID
DIMENSIONS 17 17 1
POINTS 289 FLOAT
0.000000 0.000000 0.000000
0.000000 0.062500 0.000000
0.000000 0.125000 0.000000
0.000000 0.187500 0.000000
0.000000 0.250000 0.000000
0.000000 0.312500 0.000000
0.000000 0.375000 0.000000
0.000000 0.437500 0.000000
0.000000 0.500000 0.000000
0.000000 0.562500 0.000000
0.000000 0.625000 0.000000
0.000000 0.687500 0.000000
0.000000 0.750000 0.000000
0.000000 0.812500 0.000000
0.000000 0.875000 0.000000
0.000000 0.937500 0.000000
0.000000 1.000000 0.000000
0.062500 0.000000 0.000000
0.062500 0.062500 0.000000
0.062500 0.125000 0.000000
0.062500 0.187500 0.000000
0.062500 0.250000 0.000000
0.062500 0.312500 0.000000
0.062500 0.375000 0.000000
0.062500 0.437500 0.000000
0.062500 0.500000 0.000000
0.062500 0.562500 0.000000
0.062500 0.625000 0.000000
0.062500 0.687500 0.000000
0.062500 0.750000 0.000000
0.062500 0.812500 0.000000
0.062500 0.875000 0.000000
0.062500 0.937500 0.000000
0.062500 1.000000 0.000000
0.125000 0.000000 0.000000
0.125000 0.062500 0.000000
0.125000 0.125000 0.000000
0.125000 0.187500 0.000000
0.125000 0.250000 0.000000
0.125000 0.312500 0.000000
0.125000 0.375000 0.000000
0.125000 0.437500 0.000000
0.125000 0.500000 0.000000
0.125000 0.562500 0.000000
0.125000 0.625000 0.000000
0.125000 0.687500 0.000000
0.125000 0.750000 0.000000
0.125000 0.812500 0.000000
0.125000 0.875000 0.000000
0.125000 0.937500 0.000000
0.125000 1.000000 0.000000
0.187500 0.000000 0.000000
0.187500 0.062500 0.000000
0.187500 0.125000 0.000000
0.187500 0.187500 0.000000
0.187500 0.250000 0.000000
0.187500 0.312500 0.000000
0.187500 0.375000 0.000000
0.187500 0.437500 0.000000
0.187500 0.500000 0.000000
0.187500 0.562500 0.000000
0.187500 0.625000 0.000000
0.187500 0.687500 0.000000
0.187500 0.750000 0.000000
0.187500 0.812500 0.000000
0.187500 0.875000 0.000000
0.187500 0.937500 0.000000
0.187500 1.000000 0.000000
0.250000 0.000000 0.000000
0.250000 0.062500 0.000000
0.250000 0.125000 0.000000
0.250000 0.187500 0.000000
0.250000 0.250000 0.000000
0.250000 0.312500 0.000000
0.250000 0.375000 0.000000
0.250000 0.437500 0.000000
0.250000 0.500000 0.000000
0.250000 0.562500 0.000000
0.250000 0.625000 0.000000
0.250000 0.687500 0.000000
0.250000 0.750000 0.000000
0.250000 0.812500 0.000000
0.250000 0.875000 0.000000
0.250000 0.937500 0.000000
0.250000 1.000000 0.000000
0.312500 0.000000 0.000000
0.312500 0.062500 0.000000
0.312500 0.125000 0.000000
0.312500 0.187500 0.000000
0.312500 0.250000 0.000000
0.312500 0.312500 0.000000
0.312500 0.375000 0.000000
0.312500 0.437500 0.000000
0.312500 0.500000 0.000000
0.312500 0.562500 0.000000
0.312500 0.625000 0.000000
0.312500 0.687500 0.000000
0.312500 0.750000 0.000000
0.312500 0.812500 0.000000
0.312500 0.875000 0.000000
0.312500 0.937500 0.000000
0.312500 1.000000 0.000000
0.375000 0.000000 0.000000
0.375000 0.062500 0.000000
0.375000 0.125000 0.000000
0.375000 0.187500 0.000000
0.375000 0.250000 0.000000
0.375000 0.312500 0.000000
0.375000 0.375000 0.000000
0.375000 0.437500 0.000000
0.375000 0.500000 0.000000
0.375000 0.562500 0.000000
0.375000 0.625000 0.000000
0.375000 0.687500 0.000000
0.375000 0.750000 0.000000
0.375000 0.812500 0.000000
0.375000 0.875000 0.000000
0.375000 0.937500 0.000000
0.375000 1.000000 0.000000
0.437500 0.000000 0.000000
0.437500 0.062500 0.000000
0.437500 0.125000 0.000000
0.437500 0.187500 0.000000
0.437500 0.250000 0.000000
0.437500 0.312500 0.000000
0.437500 0.375000 0.000000
0.437500 0.437500 0.000000
0.437500 0.500000 0.000000
0.437500 0.562500 0.000000
0.437500 0.625000 0.000000
0.437500 0.687500 0.000000
0.437500 0.750000 0.000000
0.437500 0.812500 0.000000
0.437500 0.875000 0.000000
0.437500 0.937500 0.000000
0.437500 1.000000 0.000000
0.500000 0.000000 0.000000
0.500000 0.062500 0.000000
0.500000 0.125000 0.000000
0.500000 0.187500 0.000000
0.500000 0.250000 0.000000
0.500000 0.312500 0.000000
0.500000 0.375000 0.000000
0.500000 0.437500 0.000000
0.500000 0.500000 0.000000
0.500000 0.562500 0.000000
0.500000 0.625000 0.000000
0.500000 0.687500 0.000000
0.500000 0.750000 0.000000
0.500000 0.812500 0.000000
0.500000 0.875000 0.000000
0.500000 0.937500 0.000000
0.500000 1.000000 0.000000
0.562500 0.000000 0.000000
0.562500 0.062500 0.000000
0.562500 0.125000 0.000000
0.562500 0.187500 0.000000
0.562500 0.250000 0.000000
0.562500 0.312500 0.000000
0.562500 0.375000 0.000000
0.562500 0.437500 0.000000
0.562500 0.500000 0.000000
0.562500 0.562500 0.000000
0.562500 0.625000 0.000000
0.562500 0.687500 0.000000
0.562500 0.750000 0.000000
0.562500 0.812500 0.000000
0.562500 0.875000 0.000000
0.562500 0.937500 0.000000
0.562500 1.000000 0.000000
0.625000 0.000000 0.000000
0.625000 0.062500 0.000000
0.625000 0.125000 0.000000
0.625000 0.187500 0.000000
0.625000 0.250000 0.000000
0.625000 0.312500 0.000000
0.625000 0.375000 0.000000
0.625000 0.437500 0.000000
0.625000 0.500000 0.000000
0.625000 0.562500 0.000000
0.625000 0.625000 0.000000
0.625000 0.687500 0.000000
0.625000 0.750000 0.000000
0.625000 0.812500 0.000000
0.625000 0.875000 0.000000
0.625000 0.937500 0.000000
0.625000 1.000000 0.000000
0.687500 0.000000 0.000000
0.687500 0.062500 0.000000
0.687500 0.125000 0.000000
0.687500 0.187500 0.000000
0.687500 0.250000 0.000000
0.687500 0.312500 0.000000
0.687500 0.375000 0.000000
0.687500 0.437500 0.000000
0.687500 0.500000 0.000000
0.687500 0.562500 0.000000
0.687500 0.625000 0.000000
0.687500 0.687500 0.000000
0.687500 0.750000 0.000000
0.687500 0.812500 0.000000
0.687500 0.875000 0.000000
0.687500 0.937500 0.000000
0.687500 1.000000 0.000000
0.750000 0.000000 0.000000
0.750000 0.062500 0.000000
0.750000 0.125000 0.000000
0.750000 0.187500 0.000000
0.750000 0.250000 0.000000
0.750000 0.312500 0.000000
0.750000 0.375000 0.000000
0.750000 0.437500 0.000000
0.750000 0.500000 0.000000
0.750000 0.562500 0.000000
0.750000 0.625000 0.000000
0.750000 0.687500 0.000000
0.750000 0.750000 0.000000
0.750000 0.812500 0.000000
0.750000 0.875000 0.000000
0.750000 0.937500 0.000000
0.750000 1.000000 0.000000
0.812500 0.000000 0.000000
0.812500 0.062500 0.000000
0.812500 0.125000 0.000000
0.812500 0.187500 0.000000
0.812500 0.250000 0.000000
0.812500 0.312500 0.000000
0.812500 0.375000 0.000000
0.812500 0.437500 0.000000
0.812500 0.500000 0.000000
0.812500 0.562500 0.000000
0.812500 0.625000 0.000000
0.812500 0.687500 0.000000
0.812500 0.750000 0.000000
0.812500 0.812500 0.000000
0.812500 0.875000 0.000000
0.812500 0.937500 0.000000
0.812500 1.000000 0.000000
0.875000 0.000000 0.000000
0.875000 0.062500 0.000000
0.875000 0.125000 0.000000
0.875000 0.187500 0.000000
0.875000 0.250000 0.000000
0.875000 0.312500 0.000000
0.875000 0.375000 0.000000
0.875000 0.437500 0.000000
0.875000 0.500000 0.000000
0.875000 0.562500 0.000000
0.875000 0.625000 0.000000
0.875000 0.687500 0.000000
0.875000 0.750000 0.000000
0.875000 0.812500 0.000000
0.875000 0.875000 0.000000
0.875000 0.937500 0.000000
0.875000 1.000000 0.000000
0.937500 0.000000 0.000000
0.937500 0.062500 0.000000
0.937500 0.125000 0.000000
0.937500 0.187500 0.000000
0.937500 0.250000 0.000000
0.937500 0.312500 0.000000
0.937500 0.375000 0.000000
0.937500 0.437500 0.000000
0.937500 0.500000 0.000000
0.937500 0.562500 0.000000
0.937500 0.625000 0.000000
0.937500 0.687500 0.000000
0.937500 0.750000 0.000000
0.937500 0.812500 0.000000
0.937500 0.875000 0.000000
0.937500 0.937500 0.000000
0.937500 1.000000 0.000000
1.000000 0.000000 0.000000
1.000000 0.062500 0.000000
1.000000 0.125000 0.000000
1.000000 0.187500 0.000000
1.000000 0.250000 0.000000
1.000000 0.312500 0.000000
1.000000 0.375000 0.000000
1.000000 0.437500 0.000000
1.000000 0.500000 0.000000
1.000000 0.562500 0.000000
1.000000 0.625000 0.000000
1.000000 0.687500 0.000000
1.000000 0.750000 0.000000
1.000000 0.812500 0.000000
1.000000 0.875000 0.000000
1.000000 0.937500 0.000000
1.000000 1.000000 0.000000
POINT_DATA 289
SCALARS phi FLOAT 1
LOOKUP_TABLE default
0.000000000000
0.000015258789
0.000244140625
0.001235961914
0.003906250000
0.009536743164
0.019775390625
0.036636352539
0.062500000000
0.100112915039
0.152587890625
0.223403930664
0.316406250000
0.435806274414
0.586181640625
0.772476196289
1.000000000000
0.000015258789
0.000035937095
0.000056599656
0.000638594454
0.002703057445
0.007534718499
0.016783259584
0.032463859827
0.056957433776
0.093010734827
0.143736384584
0.212612843499
0.303484307445
0.420560469454
0.568415974657
0.751989062096
0.976577758789
0.000244140625
0.000056599656
-0.000692335318
-0.001441330876
-0.001267447309
0.001115679592
0.007358920259
0.019478235097
0.039854979037
0.071236047598
0.116733920260
0.179826617093
0.264357552692
0.374535231625
0.514932664683
0.690486287157
0.906494140625
0.001235961914
0.000638594454
-0.001441330876
-0.004444311235
-0.007447419283
-0.009163736341
-0.007941785758
-0.001765129271
0.011747883055
0.035344245730
0.072136339243
0.125601888660
0.199583830719
0.298290063766
0.426293044126
0.588529219455
0.790298461914
0.003906250000
0.002703057445
-0.001267447309
-0.007447419283
-0.014914507276
-0.022381802113
-0.028197622353
-0.030345300311
-0.026443022937
-0.013743737810
0.010864877649
0.050860385389
0.110085492726
0.192747893220
0.303420052693
0.447038994946
0.628906250000
0.009536743164
0.007534718499
0.001115679592
-0.009163736341
-0.022381802113
-0.037251828926
-0.052122141737
-0.064976000483
-0.073431521725
-0.074741625482
-0.065794016735
-0.043111203923
-0.002850552110
0.059195638661
0.147600054594
0.267300343500
0.423599243164
0.019775390625
0.016783259584
0.007358920259
-0.007941785758
-0.028197622353
-0.052122141737
-0.078063750755
-0.104005712877
-0.127566125933
-0.145997900375
-0.156188750753
-0.154661204234
-0.137572622350
-0.100715223255
-0.039516079739
0.050962947085
0.176025390625
0.036636352539
0.032463859827
0.019478235097
-0.001765129271
-0.030345300311
-0.064976000483
-0.104005712877
-0.145417724042
-0.186830133148
-0.225495849040
-0.258302587874
-0.281772875480
-0.292064050308
-0.284968254268
-0.255912389900
-0.199958015172
-0.111801147461
0.062500000000
0.056957433776
0.039854979037
0.011747883055
-0.026443022937
-0.073431521725
-0.127566125933
-0.186830133148
-0.248841645054
-0.310853570647
-0.369753625930
-0.422064334222
-0.463943022934
-0.491181804441
-0.499207520960
-0.483081628723
-0.437500000000
0.100112915039
0.093010734827
0.071236047598
0.035344245730
-0.013743737810
-0.074741625482
-0.145997900375
-0.225495849040
-0.310853570647
-0.399323974039
-0.487794775373
-0.572788500479
-0.650462487807
-0.716608879267
-0.766654577400
-0.795661140172
-0.798324584961
0.152587890625
0.143736384584
0.116733920260
0.072136339243
0.010864877649
-0.065794016735
-0.156188750753
-0.258302587874
-0.369753625930
-0.487794775373
-0.609313750750
-0.730833079232
-0.848510122348
-0.958137098254
-1.055141079738
-1.134583927915
-1.191162109375
0.223403930664
0.212612843499
0.179826617093
0.125601888660
0.050860385389
-0.043111203923
-0.154661204234
-0.281772875480
-0.422064334222
-0.572788500479
-0.730833079232
-0.892720578920
-1.054608364608
-1.212288736337
-1.361189007904
-1.496371531500
-1.612533569336
0.316406250000
0.303484307445
0.264357552692
0.199583830719
0.110085492726
-0.002850552110
-0.137572622350
-0.292064050308
-0.463943022934
-0.650462487807
-0.848510122348
-1.054608364608
-1.264914507271
-1.475220856778
-1.680954947306
-1.877179755054
-2.058593750000
0.435806274414
0.420560469454
0.374535231625
0.298290063766
0.192747893220
0.059195638661
-0.100715223255
-0.284968254268
-0.491181804441
-0.716608879267
-0.958137098254
-1.212288736337
-1.475220856778
-1.742725561232
-2.010230393373
-2.272798905545
-2.525131225586
0.586181640625
0.568415974657
0.514932664683
0.426293044126
0.303420052693
0.147600054594
-0.039516079739
-0.255912389900
-0.499207520960
-0.766654577400
-1.055141079738
-1.361189007904
-1.680954947306
-2.010230393373
-2.344442335316
-2.678654337843
-3.007568359375
0.772476196289
0.751989062096
0.690486287157
0.588529219455
0.447038994946
0.267300343500
0.050962947085
-0.199958015172
-0.483081628723
-0.795661140172
-1.134583927915
-1.496371531500
-1.877179755054
-2.272798905545
-2.678654337843
-3.089807812904
-3.500961303711
1.000000000000
0.976577758789
0.906494140625
0.790298461914
0.628906250000
0.423599243164
0.176025390625
-0.111801147461
-0.437500000000
-0.798324584961
-1.191162109375
-1.612533569336
-2.058593750000
-2.525131225586
-3.007568359375
-3.500961303711
-4.000000000000
